/*--------------------------------*- C++ -*----------------------------------*\
| RapidCFD by simFlow (sim-flow.com)                                          |
\*---------------------------------------------------------------------------*/
FoamFile
{
    version     2.0;
    format      ascii;
    class       volScalarField;
    location    "0.2";
    object      p;
}
// * * * * * * * * * * * * * * * * * * * * * * * * * * * * * * * * * * * * * //

dimensions      [0 2 -2 0 0 0 0];

internalField   nonuniform List<scalar> 
400
(
6.91928e-06
-0.00581313
-0.0129437
-0.0183899
-0.020403
-0.0182066
-0.0117411
-0.00145159
0.0118675
0.0271765
0.0432685
0.0588441
0.0725973
0.0833258
0.0900703
0.0922862
0.0900484
0.0842707
0.0769118
0.0711012
0.00578591
-0.000207855
-0.00578817
-0.00952203
-0.0105747
-0.00840579
-0.00294155
0.00550288
0.0163311
0.0287386
0.0417751
0.0544098
0.0656091
0.0744322
0.0801431
0.0823402
0.0811043
0.0770852
0.071308
0.0653548
0.0133378
0.00504208
-0.000981916
-0.00440553
-0.00525182
-0.0032401
0.00162804
0.00905434
0.0185292
0.0293762
0.0407919
0.0518955
0.0617941
0.069662
0.0748335
0.0769062
0.0758721
0.0721194
0.0658427
0.0575769
0.0201395
0.00870278
0.00123786
-0.00265248
-0.00370259
-0.00186295
0.00275579
0.00981062
0.0188074
0.0291225
0.0400196
0.0506816
0.0602607
0.0679441
0.0730323
0.0750322
0.0737989
0.0694923
0.0616434
0.0501485
0.0245007
0.0097795
0.000601531
-0.00397117
-0.00528305
-0.00348525
0.00119919
0.00836088
0.0174897
0.0279777
0.0391142
0.0500994
0.0600787
0.0681954
0.0736577
0.0758306
0.0744042
0.0693282
0.0595685
0.0445867
0.0251777
0.00715768
-0.00378911
-0.00904049
-0.0104921
-0.00847699
-0.0033313
0.00445706
0.0143426
0.0257095
0.037845
0.049935
0.0610801
0.0703356
0.0767679
0.0795516
0.0781758
0.0723734
0.0605838
0.0419415
0.0210971
-0.000251526
-0.0129189
-0.0186903
-0.0200076
-0.0173888
-0.0112907
-0.00228976
0.00902215
0.0220092
0.0359434
0.0499786
0.0631466
0.0743799
0.082557
0.0866056
0.0857586
0.0794877
0.0656653
0.0431232
0.0111529
-0.0136024
-0.0278554
-0.0338317
-0.0345782
-0.0308294
-0.0231822
-0.0123122
0.00113966
0.01652
0.0330894
0.0499707
0.0661204
0.0803268
0.0912377
0.0974675
0.0979089
0.0916767
0.0759404
0.0491661
-0.00594847
-0.0342441
-0.0498451
-0.0555215
-0.0550608
-0.0494828
-0.0395593
-0.0260769
-0.00971882
0.0088625
0.0289411
0.0496337
0.0698373
0.0881937
0.103086
0.11274
0.115589
0.110232
0.0928766
0.0614576
-0.0318285
-0.0638464
-0.0803861
-0.0849751
-0.0823864
-0.0740426
-0.0609431
-0.0439967
-0.0239099
-0.00129412
0.0231889
0.0487041
0.0741379
0.0980135
0.118436
0.133165
0.140027
0.136857
0.118481
0.0819755
-0.0686285
-0.104566
-0.121308
-0.123553
-0.117478
-0.105087
-0.0876772
-0.0662826
-0.0415925
-0.01411
0.0156515
0.0469987
0.0789002
0.109836
0.137665
0.159625
0.172765
0.173815
0.155557
0.113607
-0.119354
-0.159313
-0.174873
-0.172716
-0.161107
-0.142887
-0.119715
-0.092732
-0.0625309
-0.0294001
0.0064208
0.0445205
0.0841008
0.123747
0.161178
0.193125
0.215705
0.224113
0.208084
0.160663
-0.188573
-0.232193
-0.243893
-0.233904
-0.213651
-0.187111
-0.156328
-0.122455
-0.0858505
-0.0464238
-0.00396604
0.0415864
0.0898881
0.139873
0.18936
0.234728
0.271111
0.291698
0.281773
0.229801
-0.283915
-0.329252
-0.331784
-0.308235
-0.274665
-0.236396
-0.19572
-0.153564
-0.109793
-0.0636971
-0.0143898
0.0389106
0.0965995
0.158319
0.222414
0.285325
0.341431
0.381606
0.384941
0.331855
-0.419258
-0.459619
-0.442303
-0.395748
-0.342087
-0.287698
-0.234574
-0.182886
-0.131564
-0.0789383
-0.0231672
0.0375212
0.104597
0.178879
0.259899
0.345005
0.428648
0.499729
0.529699
0.485409
-0.620474
-0.636694
-0.578633
-0.494152
-0.411202
-0.33562
-0.267741
-0.205937
-0.147493
-0.0893384
-0.028381
0.0383925
0.113849
0.200511
0.300011
0.412058
0.533059
0.651802
0.732794
0.722411
-0.935872
-0.87847
-0.741702
-0.597913
-0.474359
-0.372626
-0.288833
-0.217725
-0.153913
-0.0924218
-0.0286743
0.0417383
0.123304
0.220756
0.338961
0.482186
0.652025
0.841367
1.01529
1.09752
-1.47638
-1.20659
-0.920468
-0.691357
-0.517276
-0.387515
-0.29003
-0.213303
-0.148087
-0.0871759
-0.0245364
0.045499
0.128978
0.233109
0.367138
0.542709
0.771321
1.05934
1.40331
1.73016
-2.53961
-1.63051
-1.04441
-0.710932
-0.495726
-0.352069
-0.254504
-0.183553
-0.126135
-0.0735577
-0.0192289
0.0428284
0.119254
0.218822
0.354849
0.548017
0.826423
1.23661
1.9117
2.92421
-4.36663
-2.0446
-0.973515
-0.563159
-0.357828
-0.240128
-0.170098
-0.123758
-0.0874509
-0.0534748
-0.0166146
0.0277036
0.0846517
0.161773
0.272453
0.442137
0.718253
1.22574
2.41106
4.84855
)
;

boundaryField
{
    movingWall
    {
        type            zeroGradient;
    }
    fixedWalls
    {
        type            zeroGradient;
    }
    frontAndBack
    {
        type            empty;
    }
}


// ************************************************************************* //
