/*--------------------------------*- C++ -*----------------------------------*\
| RapidCFD by simFlow (sim-flow.com)                                          |
\*---------------------------------------------------------------------------*/
FoamFile
{
    version     2.0;
    format      ascii;
    class       surfaceScalarField;
    location    "0.2";
    object      phi;
}
// * * * * * * * * * * * * * * * * * * * * * * * * * * * * * * * * * * * * * //

dimensions      [0 3 -1 0 0 0 0];

internalField   nonuniform List<scalar> 
760
(
1.42106e-08
-1.42684e-08
-2.22147e-08
3.64256e-08
-1.14232e-07
9.20179e-08
-2.454e-07
1.31167e-07
-3.95939e-07
1.50539e-07
-5.47143e-07
1.51203e-07
-6.8291e-07
1.35767e-07
-7.90337e-07
1.07427e-07
-8.59853e-07
6.9516e-08
-8.85278e-07
2.54254e-08
-8.63969e-07
-2.13092e-08
-7.9707e-07
-6.68992e-08
-6.89815e-07
-1.07255e-07
-5.51763e-07
-1.38051e-07
-3.96799e-07
-1.54963e-07
-2.42668e-07
-1.54131e-07
-1.09704e-07
-1.32964e-07
-1.84191e-08
-9.12842e-08
1.56788e-08
-3.40976e-08
1.56788e-08
-3.42043e-08
1.99364e-08
-1.80296e-07
1.82518e-07
-4.33795e-07
3.45517e-07
-7.64091e-07
4.61463e-07
-1.13171e-06
5.18155e-07
-1.49658e-06
5.16075e-07
-1.82253e-06
4.6172e-07
-2.07962e-06
3.64516e-07
-2.24529e-06
2.35189e-07
-2.30504e-06
8.51722e-08
-2.25293e-06
-7.34163e-08
-2.09216e-06
-2.27671e-07
-1.83549e-06
-3.63923e-07
-1.50542e-06
-4.68123e-07
-1.13362e-06
-5.26761e-07
-7.5922e-07
-5.28533e-07
-4.25236e-07
-4.66947e-07
-1.72629e-07
-3.43891e-07
-3.07929e-08
-1.75934e-07
-1.51142e-08
-9.2183e-08
1.1212e-07
-3.56824e-07
4.47159e-07
-7.64194e-07
7.52888e-07
-1.26789e-06
9.6516e-07
-1.81385e-06
1.06412e-06
-2.34796e-06
1.05018e-06
-2.82114e-06
9.34899e-07
-3.19249e-06
7.35865e-07
-3.43106e-06
4.73759e-07
-3.51694e-06
1.7105e-07
-3.44205e-06
-1.48307e-07
-3.21085e-06
-4.58869e-07
-2.84087e-06
-7.33899e-07
-2.36279e-06
-9.46207e-07
-1.81954e-06
-1.07001e-06
-1.26395e-06
-1.08412e-06
-7.54204e-07
-9.76696e-07
-3.46823e-07
-7.51272e-07
-8.72981e-08
-4.35459e-07
-1.02413e-07
-1.45137e-07
2.57256e-07
-5.25206e-07
8.27228e-07
-1.08112e-06
1.3088e-06
-1.7467e-06
1.63074e-06
-2.45321e-06
1.77063e-06
-3.13496e-06
1.73193e-06
-3.73362e-06
1.53356e-06
-4.20104e-06
1.20329e-06
-4.50094e-06
7.73655e-07
-4.60992e-06
2.8003e-07
-4.51831e-06
-2.39917e-07
-4.23093e-06
-7.46249e-07
-3.76777e-06
-1.19705e-06
-3.16431e-06
-1.54967e-06
-2.47085e-06
-1.76347e-06
-1.75034e-06
-1.80463e-06
-1.07406e-06
-1.65298e-06
-5.14918e-07
-1.31041e-06
-1.39253e-07
-8.11125e-07
-2.41666e-07
-1.93517e-07
4.50773e-07
-6.84692e-07
1.3184e-06
-1.38502e-06
2.00913e-06
-2.2063e-06
2.45202e-06
-3.06418e-06
2.62851e-06
-3.88217e-06
2.54991e-06
-4.59461e-06
2.246e-06
-5.14848e-06
1.75716e-06
-5.50422e-06
1.12939e-06
-5.63626e-06
4.12075e-07
-5.53356e-06
-3.4262e-07
-5.20033e-06
-1.07948e-06
-4.65707e-06
-1.74031e-06
-3.94144e-06
-2.2653e-06
-3.10852e-06
-2.5964e-06
-2.22965e-06
-2.6835e-06
-1.3891e-06
-2.49352e-06
-6.7823e-07
-2.02129e-06
-1.87689e-07
-1.30167e-06
-4.29354e-07
-2.39842e-07
6.90615e-07
-8.40026e-07
1.91859e-06
-1.68266e-06
2.85177e-06
-2.65609e-06
3.42545e-06
-3.65953e-06
3.63194e-06
-4.60613e-06
3.49652e-06
-5.42444e-06
3.06431e-06
-6.05845e-06
2.39117e-06
-6.46712e-06
1.53806e-06
-6.62378e-06
5.68741e-07
-6.51611e-06
-4.50289e-07
-6.14675e-06
-1.44884e-06
-5.53471e-06
-2.35234e-06
-4.71738e-06
-3.08263e-06
-3.75224e-06
-3.56154e-06
-2.7176e-06
-3.71814e-06
-1.71098e-06
-3.50014e-06
-8.44378e-07
-2.88789e-06
-2.36095e-07
-1.90995e-06
-6.65449e-07
-2.86653e-07
9.77268e-07
-9.96788e-07
2.62872e-06
-1.98151e-06
3.83649e-06
-3.10407e-06
4.54801e-06
-4.24677e-06
4.77464e-06
-5.31334e-06
4.5631e-06
-6.22839e-06
3.97937e-06
-6.93526e-06
3.09804e-06
-7.39347e-06
1.99626e-06
-7.57657e-06
7.51847e-07
-7.47117e-06
-5.55696e-07
-7.07725e-06
-1.84276e-06
-6.41022e-06
-3.01937e-06
-5.50418e-06
-3.98868e-06
-4.41594e-06
-4.64977e-06
-3.22856e-06
-4.90553e-06
-2.05243e-06
-4.67627e-06
-1.02227e-06
-3.91805e-06
-2.88201e-07
-2.64402e-06
-9.53651e-07
-3.36258e-07
1.31353e-06
-1.16013e-06
3.4526e-06
-2.28756e-06
4.96392e-06
-3.5543e-06
5.81474e-06
-4.82568e-06
6.04602e-06
-5.99789e-06
5.73531e-06
-6.99466e-06
4.97614e-06
-7.762e-06
3.86538e-06
-8.26287e-06
2.49714e-06
-8.47298e-06
9.61949e-07
-8.37836e-06
-6.50309e-07
-7.9754e-06
-2.24572e-06
-7.27323e-06
-3.72153e-06
-6.29881e-06
-4.9631e-06
-5.10376e-06
-5.84482e-06
-3.77186e-06
-6.23743e-06
-2.42446e-06
-6.02367e-06
-1.22052e-06
-5.12198e-06
-3.47641e-07
-3.5169e-06
-1.30129e-06
-3.90912e-07
1.70444e-06
-1.33474e-06
4.39642e-06
-2.60469e-06
6.23387e-06
-4.00551e-06
7.21556e-06
-5.38622e-06
7.42673e-06
-6.63901e-06
6.9881e-06
-7.69156e-06
6.02869e-06
-8.49749e-06
4.67131e-06
-9.02737e-06
3.02702e-06
-9.26186e-06
1.19643e-06
-9.1876e-06
-7.24564e-07
-8.79649e-06
-2.63683e-06
-8.08847e-06
-4.42955e-06
-7.07825e-06
-5.97332e-06
-5.8057e-06
-7.11737e-06
-4.34858e-06
-7.69455e-06
-2.83451e-06
-7.53775e-06
-1.44694e-06
-6.50956e-06
-4.18051e-07
-4.54579e-06
-1.71934e-06
-4.53442e-07
2.15788e-06
-1.52565e-06
5.46863e-06
-2.93481e-06
7.64304e-06
-4.44999e-06
8.73074e-06
-5.90615e-06
8.88289e-06
-7.19759e-06
8.27953e-06
-8.26338e-06
7.09449e-06
-9.07175e-06
5.47968e-06
-9.60652e-06
3.56179e-06
-9.85723e-06
1.44714e-06
-9.81305e-06
-7.68741e-07
-9.46101e-06
-2.98887e-06
-8.78876e-06
-5.1018e-06
-7.79269e-06
-6.96939e-06
-6.49195e-06
-8.41811e-06
-4.94776e-06
-9.23873e-06
-3.28497e-06
-9.20054e-06
-1.7086e-06
-8.08593e-06
-5.03563e-07
-5.75083e-06
-2.22291e-06
-5.2836e-07
2.68624e-06
-1.73973e-06
6.68e-06
-3.27811e-06
9.18141e-06
-4.87182e-06
1.03245e-05
-6.34726e-06
1.03583e-05
-7.61112e-06
9.54339e-06
-8.62468e-06
8.10805e-06
-9.38002e-06
6.23502e-06
-9.88133e-06
4.0631e-06
-1.01319e-05
1.69766e-06
-1.01261e-05
-7.74519e-07
-9.84659e-06
-3.26836e-06
-9.26619e-06
-5.6822e-06
-8.35649e-06
-7.8791e-06
-7.1048e-06
-9.6698e-06
-5.54076e-06
-1.08028e-05
-3.77073e-06
-1.09706e-05
-2.01218e-06
-9.84448e-06
-6.09689e-07
-7.15331e-06
-2.83259e-06
-6.23724e-07
3.30996e-06
-1.98756e-06
8.04384e-06
-3.63225e-06
1.08261e-05
-5.24243e-06
1.19346e-05
-6.64823e-06
1.17641e-05
-7.78527e-06
1.06804e-05
-8.65192e-06
8.9747e-06
-9.27529e-06
6.85839e-06
-9.68755e-06
4.47536e-06
-9.91083e-06
1.92094e-06
-9.9482e-06
-7.37148e-07
-9.77947e-06
-3.43709e-06
-9.36165e-06
-6.10001e-06
-8.63624e-06
-8.60451e-06
-7.54686e-06
-1.07592e-05
-6.07191e-06
-1.22777e-05
-4.27447e-06
-1.2768e-05
-2.36374e-06
-1.17552e-05
-7.44803e-07
-8.77225e-06
-3.5774e-06
-7.54161e-07
4.06412e-06
-2.28462e-06
9.5743e-06
-3.98751e-06
1.2529e-05
-5.50985e-06
1.3457e-05
-6.71061e-06
1.29649e-05
-7.57978e-06
1.15496e-05
-8.17146e-06
9.56637e-06
-8.55916e-06
7.24609e-06
-8.80934e-06
4.72554e-06
-8.96666e-06
2.07827e-06
-9.04592e-06
-6.57889e-07
-9.02719e-06
-3.45583e-06
-8.85386e-06
-6.27333e-06
-8.43587e-06
-9.02249e-06
-7.66372e-06
-1.15313e-05
-6.44258e-06
-1.34989e-05
-4.75661e-06
-1.4454e-05
-2.76692e-06
-1.37449e-05
-9.22484e-07
-1.06167e-05
-4.49988e-06
-9.45307e-07
5.00943e-06
-2.64881e-06
1.12778e-05
-4.31159e-06
1.41918e-05
-5.57421e-06
1.47196e-05
-6.3719e-06
1.37626e-05
-6.78477e-06
1.19625e-05
-6.94222e-06
9.72382e-06
-6.97162e-06
7.27549e-06
-6.97476e-06
4.72868e-06
-7.01849e-06
2.12201e-06
-7.13053e-06
-5.45849e-07
-7.29555e-06
-3.29081e-06
-7.45022e-06
-6.11866e-06
-7.47922e-06
-8.9935e-06
-7.21898e-06
-1.17916e-05
-6.4835e-06
-1.42343e-05
-5.1339e-06
-1.58036e-05
-3.21521e-06
-1.56636e-05
-1.16445e-06
-1.26675e-05
-5.66433e-06
-1.23742e-06
6.24685e-06
-3.08362e-06
1.3124e-05
-4.50833e-06
1.56165e-05
-5.23544e-06
1.54467e-05
-5.35651e-06
1.38836e-05
-5.08343e-06
1.16894e-05
-4.63276e-06
9.27315e-06
-4.18132e-06
6.82405e-06
-3.85653e-06
4.4039e-06
-3.73923e-06
2.0047e-06
-3.86728e-06
-4.17799e-07
-4.23465e-06
-2.92344e-06
-4.78387e-06
-5.56944e-06
-5.39258e-06
-8.38479e-06
-5.85969e-06
-1.13245e-05
-5.90744e-06
-1.41866e-05
-5.23336e-06
-1.64776e-05
-3.66654e-06
-1.72304e-05
-1.50016e-06
-1.48338e-05
-7.16449e-06
-1.6739e-06
7.92074e-06
-3.51366e-06
1.49638e-05
-4.31588e-06
1.64187e-05
-4.08977e-06
1.52206e-05
-3.19428e-06
1.29882e-05
-2.00028e-06
1.04954e-05
-7.96964e-07
8.06983e-06
2.17301e-07
5.80979e-06
9.16061e-07
3.70514e-06
1.22339e-06
1.69738e-06
1.09989e-06
-2.94303e-07
5.39021e-07
-2.36257e-06
-4.24755e-07
-4.60566e-06
-1.69412e-06
-7.11543e-06
-3.07364e-06
-9.94494e-06
-4.23171e-06
-1.30285e-05
-4.69621e-06
-1.60131e-05
-3.96747e-06
-1.79592e-05
-1.94501e-06
-1.68563e-05
-9.1095e-06
-2.23075e-06
1.01515e-05
-3.59052e-06
1.63235e-05
-3.07824e-06
1.59064e-05
-1.34462e-06
1.3487e-05
8.95994e-07
1.07475e-05
3.15363e-06
8.23777e-06
5.13651e-06
6.08695e-06
6.68688e-06
4.25942e-06
7.72388e-06
2.66813e-06
8.20455e-06
1.21671e-06
8.10191e-06
-1.91671e-07
7.39718e-06
-1.65783e-06
6.08519e-06
-3.29368e-06
4.19777e-06
-5.22801e-06
1.85303e-06
-7.6002e-06
-6.62536e-07
-1.0513e-05
-2.7927e-06
-1.3883e-05
-3.66236e-06
-1.70895e-05
-2.41162e-06
-1.8107e-05
-1.15211e-05
-2.57384e-06
1.27253e-05
-2.18359e-06
1.59333e-05
7.17773e-07
1.30051e-05
4.46905e-06
9.73569e-06
8.13253e-06
7.08407e-06
1.13006e-05
5.06974e-06
1.38279e-05
3.55965e-06
1.56867e-05
2.4006e-06
1.68901e-05
1.46468e-06
1.74533e-05
6.53556e-07
1.73748e-05
-1.13175e-07
1.6629e-05
-9.1206e-07
1.51658e-05
-1.83051e-06
1.29224e-05
-2.98454e-06
9.86086e-06
-4.53867e-06
6.06132e-06
-6.71341e-06
1.91193e-06
-9.73359e-06
-1.55983e-06
-1.36177e-05
-2.4584e-06
-1.72085e-05
-1.39795e-05
-7.8501e-07
1.35104e-05
4.08076e-06
1.10675e-05
1.02974e-05
6.7884e-06
1.57934e-05
4.23974e-06
2.01576e-05
2.71984e-06
2.34575e-05
1.76987e-06
2.586e-05
1.15707e-06
2.75206e-05
7.40001e-07
2.85531e-05
4.3226e-07
2.90254e-05
1.8121e-07
2.89612e-05
-4.89713e-08
2.83378e-05
-2.8867e-07
2.7081e-05
-5.73697e-07
2.50544e-05
-9.57902e-07
2.20512e-05
-1.53546e-06
1.78151e-05
-2.47736e-06
1.21721e-05
-4.09063e-06
5.47761e-06
-6.9232e-06
-1.29199e-07
-1.16017e-05
-1.41087e-05
1.35104e-05
2.45779e-05
3.13663e-05
3.5606e-05
3.83258e-05
4.00957e-05
4.12528e-05
4.19928e-05
4.24251e-05
4.26063e-05
4.25573e-05
4.22686e-05
4.16949e-05
4.0737e-05
3.92016e-05
3.67242e-05
3.26336e-05
2.57104e-05
1.41087e-05
)
;

boundaryField
{
    movingWall
    {
        type            calculated;
        value           uniform 0;
    }
    fixedWalls
    {
        type            calculated;
        value           uniform 0;
    }
    frontAndBack
    {
        type            empty;
        value           nonuniform 0();
    }
}


// ************************************************************************* //
