/*--------------------------------*- C++ -*----------------------------------*\
| RapidCFD by simFlow (sim-flow.com)                                          |
\*---------------------------------------------------------------------------*/
FoamFile
{
    version     2.0;
    format      ascii;
    class       volVectorField;
    location    "0.2";
    object      U;
}
// * * * * * * * * * * * * * * * * * * * * * * * * * * * * * * * * * * * * * //

dimensions      [0 1 -1 0 0 0 0];

internalField   nonuniform List<vector> 
400
(
(0.000253166 -0.000250352 0)
(0.00014083 0.000111413 0)
(-0.00117672 0.000564375 0)
(-0.00347984 0.000884621 0)
(-0.00637495 0.00104528 0)
(-0.00946561 0.00106131 0)
(-0.0123978 0.00095746 0)
(-0.0148788 0.000760136 0)
(-0.0166827 0.000494456 0)
(-0.0176511 0.000184503 0)
(-0.017695 -0.00014519 0)
(-0.0167984 -0.000468159 0)
(-0.0150242 -0.000755097 0)
(-0.0125204 -0.000973869 0)
(-0.00952291 -0.00109076 0)
(-0.00635279 -0.00107361 0)
(-0.0033996 -0.000897811 0)
(-0.00108625 -0.000556233 0)
(0.000196199 -9.04056e-05 0)
(0.000267706 0.000262227 0)
(-7.74571e-05 -0.000169389 0)
(-0.0016109 0.00164411 0)
(-0.00569038 0.0036157 0)
(-0.0117136 0.00503263 0)
(-0.0188838 0.00574076 0)
(-0.0263891 0.00575775 0)
(-0.0334544 0.00516951 0)
(-0.0394096 0.00409084 0)
(-0.043725 0.00264661 0)
(-0.0460273 0.000966643 0)
(-0.0461098 -0.00081274 0)
(-0.0439429 -0.00254587 0)
(-0.0396847 -0.00407683 0)
(-0.0336889 -0.00524286 0)
(-0.0265028 -0.00588413 0)
(-0.0188472 -0.00586251 0)
(-0.0115622 -0.00509281 0)
(-0.00551126 -0.00358814 0)
(-0.0014926 -0.0015587 0)
(-4.25978e-05 0.000227234 0)
(-0.000528325 0.00109107 0)
(-0.00370959 0.00573363 0)
(-0.0105839 0.0102198 0)
(-0.0199824 0.0134017 0)
(-0.0307508 0.0149397 0)
(-0.0418033 0.0148324 0)
(-0.0520965 0.01325 0)
(-0.0607173 0.0104518 0)
(-0.0669401 0.00673935 0)
(-0.0702522 0.00243817 0)
(-0.0703704 -0.00210523 0)
(-0.0672557 -0.00652227 0)
(-0.0611266 -0.0104244 0)
(-0.0524667 -0.0134151 0)
(-0.0420198 -0.015117 0)
(-0.0307614 -0.0152193 0)
(-0.019821 -0.0135505 0)
(-0.0103593 -0.0101749 0)
(-0.00354704 -0.00554903 0)
(-0.000476632 -0.000948594 0)
(-0.000927712 0.00347807 0)
(-0.00568872 0.0122149 0)
(-0.0152947 0.0199126 0)
(-0.0279043 0.0251865 0)
(-0.0419669 0.0275848 0)
(-0.0561546 0.0271256 0)
(-0.0692223 0.0240986 0)
(-0.0800915 0.018946 0)
(-0.0879111 0.0121908 0)
(-0.0920803 0.00440384 0)
(-0.0922652 -0.00380556 0)
(-0.088414 -0.0117907 0)
(-0.0807723 -0.0188734 0)
(-0.0698949 -0.0243655 0)
(-0.0566467 -0.0276157 0)
(-0.0421781 -0.02809 0)
(-0.0278455 -0.0254873 0)
(-0.0150876 -0.0198837 0)
(-0.00550271 -0.011923 0)
(-0.000861189 -0.00322362 0)
(-0.00127827 0.00687434 0)
(-0.00753266 0.0209439 0)
(-0.0197964 0.0324957 0)
(-0.0355203 0.0400855 0)
(-0.0527223 0.0432715 0)
(-0.069831 0.0421747 0)
(-0.0854301 0.0372618 0)
(-0.0983226 0.0292011 0)
(-0.107579 0.01877 0)
(-0.112546 0.00681189 0)
(-0.112855 -0.00577671 0)
(-0.108434 -0.0180459 0)
(-0.0995257 -0.0289981 0)
(-0.0867078 -0.0376163 0)
(-0.0709102 -0.0429268 0)
(-0.0534111 -0.0441107 0)
(-0.0357717 -0.0406623 0)
(-0.0197278 -0.0325795 0)
(-0.00736771 -0.0205824 0)
(-0.00120314 -0.00649548 0)
(-0.00160681 0.0112102 0)
(-0.00931444 0.0318603 0)
(-0.0242005 0.0479311 0)
(-0.0429876 0.0580473 0)
(-0.0632353 0.0619111 0)
(-0.0831247 0.0598563 0)
(-0.10109 0.0526068 0)
(-0.115853 0.0411095 0)
(-0.126446 0.0264273 0)
(-0.132194 0.0096904 0)
(-0.132706 -0.00791132 0)
(-0.127882 -0.02512 0)
(-0.117929 -0.0406069 0)
(-0.103401 -0.0529968 0)
(-0.0852424 -0.0609412 0)
(-0.0648155 -0.0632548 0)
(-0.0438718 -0.0591189 0)
(-0.0244698 -0.0483257 0)
(-0.00925119 -0.0315453 0)
(-0.00153716 -0.0107242 0)
(-0.00193938 0.0164697 0)
(-0.0111178 0.0449553 0)
(-0.0286421 0.0662064 0)
(-0.0504657 0.0790277 0)
(-0.0736646 0.0834132 0)
(-0.0961774 0.0800427 0)
(-0.11632 0.0699972 0)
(-0.132779 0.0545643 0)
(-0.144592 0.0351193 0)
(-0.151101 0.0130815 0)
(-0.151909 -0.0100802 0)
(-0.146877 -0.0328175 0)
(-0.136146 -0.0534769 0)
(-0.120193 -0.0703084 0)
(-0.0999076 -0.0815336 0)
(-0.0766823 -0.0855005 0)
(-0.052427 -0.080934 0)
(-0.0295373 -0.0672527 0)
(-0.0112806 -0.0449231 0)
(-0.0018995 -0.0159455 0)
(-0.00229948 0.0226857 0)
(-0.0130223 0.0602779 0)
(-0.0332441 0.0873312 0)
(-0.0580681 0.102959 0)
(-0.084058 0.107626 0)
(-0.108932 0.102524 0)
(-0.130942 0.089212 0)
(-0.148805 0.0693865 0)
(-0.161634 0.044757 0)
(-0.168834 0.0170161 0)
(-0.17003 -0.0121263 0)
(-0.165039 -0.0408755 0)
(-0.153901 -0.0672876 0)
(-0.136944 -0.0892397 0)
(-0.114922 -0.104474 0)
(-0.0891597 -0.110758 0)
(-0.0616595 -0.106177 0)
(-0.0351419 -0.08955 0)
(-0.0135832 -0.0609294 0)
(-0.00232583 -0.0222699 0)
(-0.00271129 0.0299364 0)
(-0.0151062 0.0779304 0)
(-0.0381103 0.111319 0)
(-0.0658408 0.129707 0)
(-0.0943158 0.134273 0)
(-0.121085 0.126932 0)
(-0.144426 0.109866 0)
(-0.163193 0.0852544 0)
(-0.176666 0.0551507 0)
(-0.184384 0.0214826 0)
(-0.186035 -0.0138668 0)
(-0.1814 -0.048937 0)
(-0.170375 -0.0815637 0)
(-0.153063 -0.109286 0)
(-0.129956 -0.129339 0)
(-0.102174 -0.138785 0)
(-0.0716814 -0.134847 0)
(-0.0414622 -0.115436 0)
(-0.0162861 -0.0798722 0)
(-0.00285432 -0.0298806 0)
(-0.00320756 0.0383482 0)
(-0.0174657 0.0980614 0)
(-0.0433398 0.13815 0)
(-0.0737543 0.159 0)
(-0.104157 0.162854 0)
(-0.132027 0.152628 0)
(-0.15582 0.131303 0)
(-0.174672 0.101611 0)
(-0.18816 0.06594 0)
(-0.196059 0.0263847 0)
(-0.198177 -0.0151045 0)
(-0.194275 -0.0565248 0)
(-0.184073 -0.0956108 0)
(-0.167359 -0.12965 0)
(-0.144209 -0.155379 0)
(-0.115333 -0.169052 0)
(-0.0824419 -0.16676 0)
(-0.0486337 -0.145088 0)
(-0.0195277 -0.102135 0)
(-0.00353336 -0.0390374 0)
(-0.00384415 0.0481173 0)
(-0.0202471 0.120866 0)
(-0.0490487 0.167713 0)
(-0.0816898 0.190321 0)
(-0.113058 0.19251 0)
(-0.140752 0.17857 0)
(-0.163628 0.152474 0)
(-0.181316 0.117563 0)
(-0.193854 0.076517 0)
(-0.201368 0.0314891 0)
(-0.203863 -0.0156509 0)
(-0.201115 -0.0630301 0)
(-0.192653 -0.10846 0)
(-0.177861 -0.149131 0)
(-0.156226 -0.181371 0)
(-0.127781 -0.20056 0)
(-0.093645 -0.201381 0)
(-0.0567333 -0.178537 0)
(-0.0234799 -0.128147 0)
(-0.00443552 -0.0500943 0)
(-0.00472584 0.0595606 0)
(-0.0236969 0.146591 0)
(-0.0553883 0.199719 0)
(-0.0893852 0.222748 0)
(-0.120134 0.221847 0)
(-0.145691 0.203145 0)
(-0.165649 0.171803 0)
(-0.180391 0.131782 0)
(-0.190602 0.0859523 0)
(-0.196885 0.0363711 0)
(-0.199523 -0.0153634 0)
(-0.198355 -0.0677239 0)
(-0.192735 -0.118837 0)
(-0.181589 -0.166041 0)
(-0.163657 -0.205445 0)
(-0.137975 -0.231617 0)
(-0.104601 -0.237583 0)
(-0.0657364 -0.215489 0)
(-0.0283787 -0.158343 0)
(-0.00568226 -0.0635423 0)
(-0.00605226 0.0732193 0)
(-0.0282292 0.17554 0)
(-0.0625166 0.233538 0)
(-0.0962701 0.254708 0)
(-0.123875 0.248691 0)
(-0.144421 0.223987 0)
(-0.158698 0.187073 0)
(-0.168138 0.142436 0)
(-0.174234 0.0929524 0)
(-0.178152 0.0403737 0)
(-0.180518 -0.0141925 0)
(-0.181297 -0.0698043 0)
(-0.179724 -0.125184 0)
(-0.174294 -0.178146 0)
(-0.162914 -0.224934 0)
(-0.143331 -0.259548 0)
(-0.113947 -0.273291 0)
(-0.0753983 -0.255034 0)
(-0.0345583 -0.193067 0)
(-0.00748664 -0.0800951 0)
(-0.00819287 0.0900393 0)
(-0.0344867 0.208002 0)
(-0.0704217 0.267856 0)
(-0.101039 0.283574 0)
(-0.121597 0.269776 0)
(-0.133136 0.237807 0)
(-0.138197 0.195375 0)
(-0.139501 0.14721 0)
(-0.139408 0.0958945 0)
(-0.139637 0.0426144 0)
(-0.141151 -0.0122283 0)
(-0.144095 -0.068493 0)
(-0.147705 -0.125772 0)
(-0.150201 -0.182741 0)
(-0.148746 -0.236291 0)
(-0.139662 -0.280412 0)
(-0.119107 -0.304992 0)
(-0.084943 -0.29513 0)
(-0.0424432 -0.232357 0)
(-0.0102165 -0.100829 0)
(-0.0117683 0.111631 0)
(-0.0432638 0.243948 0)
(-0.078307 0.300013 0)
(-0.100644 0.305067 0)
(-0.108375 0.280432 0)
(-0.105761 0.240355 0)
(-0.0975654 0.193257 0)
(-0.0878118 0.14353 0)
(-0.0795452 0.0930234 0)
(-0.0748312 0.0420903 0)
(-0.0748486 -0.00972543 0)
(-0.0799344 -0.0632002 0)
(-0.0895027 -0.118973 0)
(-0.101823 -0.176934 0)
(-0.113714 -0.235259 0)
(-0.120326 -0.288854 0)
(-0.115278 -0.327169 0)
(-0.0922746 -0.331772 0)
(-0.0523189 -0.275387 0)
(-0.0144309 -0.127341 0)
(-0.01755 0.140656 0)
(-0.0547681 0.282137 0)
(-0.082795 0.324704 0)
(-0.0880955 0.312455 0)
(-0.0751304 0.274435 0)
(-0.0526197 0.22675 0)
(-0.0274934 0.17727 0)
(-0.0045546 0.129121 0)
(0.0130551 0.0829032 0)
(0.0233943 0.0379431 0)
(0.0253529 -0.0070713 0)
(0.0184637 -0.0537507 0)
(0.00293969 -0.103739 0)
(-0.0200319 -0.158304 0)
(-0.0477145 -0.217483 0)
(-0.0750065 -0.278341 0)
(-0.0935615 -0.331772 0)
(-0.0920721 -0.357666 0)
(-0.0632838 -0.319282 0)
(-0.0206342 -0.161969 0)
(-0.0254502 0.18171 0)
(-0.0657771 0.317767 0)
(-0.0733398 0.331354 0)
(-0.0480892 0.295389 0)
(-0.00559648 0.244198 0)
(0.041194 0.192367 0)
(0.0846227 0.145035 0)
(0.120501 0.102962 0)
(0.146663 0.0651313 0)
(0.162006 0.0298887 0)
(0.1659 -0.00467025 0)
(0.157896 -0.0406234 0)
(0.137695 -0.0802383 0)
(0.105408 -0.125907 0)
(0.0622358 -0.179714 0)
(0.0117857 -0.242008 0)
(-0.0378436 -0.307865 0)
(-0.0716872 -0.360132 0)
(-0.0700586 -0.356601 0)
(-0.0279128 -0.208372 0)
(-0.0296491 0.239176 0)
(-0.0608426 0.335766 0)
(-0.0219465 0.300499 0)
(0.0505337 0.240121 0)
(0.127559 0.182942 0)
(0.196989 0.135382 0)
(0.254313 0.097392 0)
(0.298223 0.0668455 0)
(0.328794 0.0413517 0)
(0.346434 0.0187771 0)
(0.351343 -0.00279342 0)
(0.343271 -0.0252624 0)
(0.321439 -0.0507832 0)
(0.284617 -0.0820423 0)
(0.231551 -0.122439 0)
(0.162165 -0.175662 0)
(0.0798897 -0.243425 0)
(-0.00319602 -0.319131 0)
(-0.0546719 -0.368609 0)
(-0.0284598 -0.267617 0)
(0.00808325 0.281862 0)
(0.0197829 0.294972 0)
(0.139064 0.210971 0)
(0.264456 0.143475 0)
(0.36436 0.0971832 0)
(0.440353 0.0657745 0)
(0.496728 0.0442348 0)
(0.536856 0.0288839 0)
(0.563426 0.0171975 0)
(0.578284 0.00748429 0)
(0.582359 -0.00149375 0)
(0.575675 -0.0108441 0)
(0.55729 -0.0218453 0)
(0.525118 -0.0363327 0)
(0.475764 -0.0572571 0)
(0.404527 -0.0893816 0)
(0.30517 -0.139739 0)
(0.173413 -0.216384 0)
(0.0411708 -0.311654 0)
(0.0184301 -0.299995 0)
(0.299604 0.146091 0)
(0.396272 0.127503 0)
(0.55742 0.0760894 0)
(0.674487 0.0437229 0)
(0.743886 0.0255716 0)
(0.78715 0.0152417 0)
(0.81548 0.00921186 0)
(0.833949 0.00550905 0)
(0.845378 0.00302697 0)
(0.851364 0.0011493 0)
(0.852658 -0.000499274 0)
(0.849375 -0.00221483 0)
(0.840993 -0.00433822 0)
(0.826135 -0.00742368 0)
(0.802074 -0.0125318 0)
(0.763618 -0.0217724 0)
(0.699106 -0.0392826 0)
(0.583952 -0.0726599 0)
(0.415827 -0.127868 0)
(0.30882 -0.149468 0)
)
;

boundaryField
{
    movingWall
    {
        type            fixedValue;
        value           uniform (1 0 0);
    }
    fixedWalls
    {
        type            fixedValue;
        value           uniform (0 0 0);
    }
    frontAndBack
    {
        type            empty;
    }
}


// ************************************************************************* //
