/*--------------------------------*- C++ -*----------------------------------*\
| RapidCFD by simFlow (sim-flow.com)                                          |
\*---------------------------------------------------------------------------*/
FoamFile
{
    version     2.0;
    format      ascii;
    class       volScalarField;
    location    "0.1";
    object      p;
}
// * * * * * * * * * * * * * * * * * * * * * * * * * * * * * * * * * * * * * //

dimensions      [0 2 -2 0 0 0 0];

internalField   nonuniform List<scalar> 
400
(
-1.04627e-07
-0.0057332
-0.0127404
-0.0180704
-0.0200025
-0.0177742
-0.0113293
-0.0011092
0.012101
0.0272749
0.0432222
0.0586616
0.0723054
0.082967
0.0896979
0.091957
0.0898125
0.0841596
0.0769254
0.0711995
0.00567896
-0.000222546
-0.00570537
-0.00935322
-0.0103427
-0.0081424
-0.00268156
0.00572655
0.0164912
0.0288166
0.0417634
0.0543135
0.0654462
0.0742316
0.0799415
0.0821764
0.0810122
0.077086
0.0714068
0.0655381
0.0130998
0.00492783
-0.000996882
-0.00434354
-0.00513172
-0.00308478
0.00179378
0.00920695
0.0186486
0.029448
0.0408091
0.0518605
0.0617189
0.0695674
0.0747468
0.0768571
0.0758875
0.0722181
0.0660401
0.0578853
0.019781
0.00850374
0.00115019
-0.00266181
-0.00365176
-0.00177057
0.00287042
0.00992923
0.0189138
0.0292041
0.0400689
0.0506984
0.0602526
0.067927
0.0730284
0.0750675
0.0738981
0.0696758
0.0619374
0.050586
0.0240646
0.00952659
0.000468723
-0.00402354
-0.00527205
-0.00342598
0.0012916
0.00847195
0.0176057
0.0280865
0.0392072
0.0501735
0.0601378
0.068251
0.0737283
0.0759397
0.074576
0.0695853
0.0599456
0.0451308
0.0247259
0.0068951
-0.00393097
-0.00910239
-0.0104886
-0.00841953
-0.00323129
0.004588
0.0144922
0.0258654
0.0379969
0.0500766
0.0612115
0.0704643
0.0769091
0.0797268
0.078409
0.0726888
0.0610211
0.0425554
0.0206997
-0.000473644
-0.0130297
-0.0187258
-0.0199782
-0.0173017
-0.0111536
-0.00211188
0.00922939
0.0222327
0.0361706
0.0501998
0.0633579
0.0745849
0.0827675
0.0868409
0.086042
0.0798441
0.0661359
0.0437641
0.0108773
-0.0137356
-0.0278967
-0.0338073
-0.0344927
-0.030685
-0.0229826
-0.0120643
0.00142517
0.016829
0.0334068
0.0502833
0.0664199
0.0806126
0.0915179
0.0977585
0.0982323
0.0920569
0.076417
0.0497913
-0.00604663
-0.0342492
-0.0497865
-0.0554115
-0.0548968
-0.0492615
-0.0392799
-0.0257437
-0.00934173
0.00926847
0.0293582
0.0500449
0.07023
0.0885628
0.103435
0.113082
0.115944
0.11062
0.0933337
0.0620278
-0.0317136
-0.063699
-0.0802098
-0.0847654
-0.0821334
-0.0737367
-0.0605784
-0.0435743
-0.0234385
-0.000789575
0.0237062
0.0492134
0.0746222
0.098463
0.11885
0.133552
0.140402
0.137238
0.118896
0.0824574
-0.0682916
-0.104262
-0.121013
-0.123246
-0.117141
-0.104705
-0.0872368
-0.0657815
-0.0410377
-0.013518
0.016258
0.047595
0.0794647
0.110355
0.138132
0.160045
0.173149
0.174176
0.155912
0.113975
-0.118817
-0.158872
-0.174479
-0.172333
-0.16071
-0.142453
-0.119226
-0.0921785
-0.0619183
-0.0287451
0.0070927
0.0451805
0.0847228
0.124312
0.161678
0.19356
0.216082
0.224438
0.208364
0.160899
-0.187888
-0.231658
-0.243439
-0.233485
-0.213236
-0.186668
-0.155831
-0.12189
-0.0852184
-0.0457423
-0.00326361
0.0422764
0.0905348
0.140454
0.189864
0.235152
0.271459
0.291973
0.281967
0.229897
-0.28316
-0.328685
-0.331327
-0.307836
-0.274288
-0.236
-0.195268
-0.153036
-0.109187
-0.0630321
-0.0136977
0.0395913
0.0972331
0.158879
0.222887
0.285709
0.341729
0.381817
0.385044
0.331812
-0.41853
-0.459093
-0.441909
-0.395434
-0.34181
-0.287406
-0.234221
-0.182444
-0.13103
-0.078332
-0.0225247
0.0381561
0.105183
0.179385
0.260311
0.345321
0.428873
0.499864
0.529712
0.485242
-0.619868
-0.636284
-0.578366
-0.493983
-0.411079
-0.335481
-0.26753
-0.205621
-0.147068
-0.0888238
-0.0278171
0.038957
0.114367
0.200947
0.300346
0.41229
0.533199
0.651855
0.732726
0.722151
-0.935464
-0.878232
-0.741609
-0.597926
-0.474421
-0.372663
-0.288786
-0.217556
-0.153615
-0.0920152
-0.0282007
0.0422271
0.123756
0.22113
0.339231
0.482348
0.65209
0.841349
1.01516
1.09721
-1.4762
-1.20654
-0.920559
-0.691555
-0.517518
-0.387725
-0.290143
-0.21328
-0.147916
-0.086875
-0.0241447
0.0459298
0.129393
0.23346
0.367392
0.542851
0.771357
1.05929
1.40316
1.72986
-2.53962
-1.63062
-1.04466
-0.711297
-0.496141
-0.352453
-0.254785
-0.183681
-0.126091
-0.07335
-0.0188911
0.0432464
0.119694
0.21923
0.355178
0.548238
0.826526
1.2366
1.91159
2.92399
-4.36673
-2.0448
-0.973886
-0.563687
-0.35844
-0.240727
-0.170589
-0.12407
-0.0875462
-0.0533487
-0.0162942
0.0281677
0.0851951
0.162328
0.272957
0.442543
0.71853
1.22588
2.41106
4.84844
)
;

boundaryField
{
    movingWall
    {
        type            zeroGradient;
    }
    fixedWalls
    {
        type            zeroGradient;
    }
    frontAndBack
    {
        type            empty;
    }
}


// ************************************************************************* //
