/*--------------------------------*- C++ -*----------------------------------*\
| RapidCFD by simFlow (sim-flow.com)                                          |
\*---------------------------------------------------------------------------*/
FoamFile
{
    version     2.0;
    format      ascii;
    class       surfaceScalarField;
    location    "0.1";
    object      phi;
}
// * * * * * * * * * * * * * * * * * * * * * * * * * * * * * * * * * * * * * //

dimensions      [0 3 -1 0 0 0 0];

internalField   nonuniform List<scalar> 
760
(
1.39785e-08
-1.39778e-08
-2.19553e-08
3.59337e-08
-1.12592e-07
9.06372e-08
-2.41715e-07
1.29123e-07
-3.89852e-07
1.48136e-07
-5.38601e-07
1.4875e-07
-6.72145e-07
1.33544e-07
-7.77815e-07
1.05671e-07
-8.46222e-07
6.84075e-08
-8.71304e-07
2.50817e-08
-8.50458e-07
-2.08451e-08
-7.84791e-07
-6.56662e-08
-6.79415e-07
-1.05376e-07
-5.43686e-07
-1.35729e-07
-3.9122e-07
-1.52465e-07
-2.39455e-07
-1.51765e-07
-1.08411e-07
-1.31044e-07
-1.83353e-08
-9.0075e-08
1.53968e-08
-3.37323e-08
1.53967e-08
-3.36802e-08
1.9702e-08
-1.77489e-07
1.79742e-07
-4.2695e-07
3.40097e-07
-7.51885e-07
4.54056e-07
-1.11344e-06
5.09686e-07
-1.47222e-06
5.07531e-07
-1.7927e-06
4.54026e-07
-2.0455e-06
3.58469e-07
-2.20849e-06
2.31401e-07
-2.26745e-06
8.40348e-08
-2.21652e-06
-7.17714e-08
-2.0588e-06
-2.2339e-07
-1.80674e-06
-3.57433e-07
-1.48236e-06
-4.60105e-07
-1.11673e-06
-5.18099e-07
-7.48272e-07
-5.20221e-07
-4.19346e-07
-4.59971e-07
-1.70363e-07
-3.39057e-07
-3.04396e-08
-1.73656e-07
-1.5043e-08
-9.07285e-08
1.1043e-07
-3.51219e-07
4.40233e-07
-7.52146e-07
7.41025e-07
-1.24777e-06
9.4968e-07
-1.78487e-06
1.04678e-06
-2.31022e-06
1.03288e-06
-2.77561e-06
9.19416e-07
-3.14089e-06
7.23755e-07
-3.37571e-06
4.66219e-07
-3.46051e-06
1.68835e-07
-3.38733e-06
-1.44953e-07
-3.16047e-06
-4.50249e-07
-2.79704e-06
-7.20857e-07
-2.32707e-06
-9.30077e-07
-1.79267e-06
-1.0525e-06
-1.24577e-06
-1.06713e-06
-7.43645e-07
-9.62091e-07
-3.42098e-07
-7.40604e-07
-8.61419e-08
-4.29612e-07
-1.01185e-07
-1.42921e-07
2.5335e-07
-5.17312e-07
8.14625e-07
-1.06491e-06
1.28862e-06
-1.72043e-06
1.6052e-06
-2.41613e-06
1.74249e-06
-3.08735e-06
1.7041e-06
-3.67674e-06
1.5088e-06
-4.13699e-06
1.18401e-06
-4.43247e-06
7.61702e-07
-4.5402e-06
2.76566e-07
-4.45063e-06
-2.34527e-07
-4.16838e-06
-7.32492e-07
-3.71299e-06
-1.17625e-06
-3.11919e-06
-1.52388e-06
-2.43636e-06
-1.73532e-06
-1.72645e-06
-1.77704e-06
-1.0597e-06
-1.62884e-06
-5.0815e-07
-1.29216e-06
-1.37433e-07
-8.00329e-07
-2.38618e-07
-1.90821e-07
4.44171e-07
-6.75366e-07
1.29917e-06
-1.36626e-06
1.97951e-06
-2.17638e-06
2.41532e-06
-3.02246e-06
2.58856e-06
-3.82906e-06
2.5107e-06
-4.53155e-06
2.21129e-06
-5.07775e-06
1.73021e-06
-5.42877e-06
1.11273e-06
-5.55947e-06
4.07265e-07
-5.45891e-06
-3.35088e-07
-5.13113e-06
-1.06027e-06
-4.59614e-06
-1.71124e-06
-3.89086e-06
-2.22916e-06
-3.06945e-06
-2.55674e-06
-2.2022e-06
-2.64429e-06
-1.37231e-06
-2.45873e-06
-6.70126e-07
-1.99434e-06
-1.85439e-07
-1.28502e-06
-4.24058e-07
-2.36993e-07
6.81164e-07
-8.30297e-07
1.89247e-06
-1.66329e-06
2.81251e-06
-2.62546e-06
3.37749e-06
-3.6171e-06
3.5802e-06
-4.5524e-06
3.44601e-06
-5.36085e-06
3.01974e-06
-5.98727e-06
2.35663e-06
-6.39125e-06
1.5167e-06
-6.54651e-06
5.62532e-07
-6.44086e-06
-4.40743e-07
-6.07675e-06
-1.42438e-06
-5.4728e-06
-2.3152e-06
-4.66567e-06
-3.03629e-06
-3.71198e-06
-3.51042e-06
-2.68904e-06
-3.66724e-06
-1.69331e-06
-3.45445e-06
-8.3575e-07
-2.8519e-06
-2.33669e-07
-1.8871e-06
-6.57727e-07
-2.83984e-07
9.65149e-07
-9.87731e-07
2.59622e-06
-1.96357e-06
3.78835e-06
-3.0758e-06
4.48973e-06
-4.20773e-06
4.71212e-06
-5.26399e-06
4.50227e-06
-6.17004e-06
3.92579e-06
-6.86994e-06
3.05653e-06
-7.32377e-06
1.97053e-06
-7.50546e-06
7.44218e-07
-7.40171e-06
-5.44497e-07
-7.0124e-06
-1.81369e-06
-6.35256e-06
-2.97503e-06
-5.45571e-06
-3.93313e-06
-4.37794e-06
-4.5882e-06
-3.20139e-06
-4.84379e-06
-2.03549e-06
-4.62035e-06
-1.01393e-06
-3.87345e-06
-2.8584e-07
-2.61519e-06
-9.43567e-07
-3.34083e-07
1.29923e-06
-1.15277e-06
3.41491e-06
-2.27298e-06
4.90856e-06
-3.53132e-06
5.74806e-06
-4.7939e-06
5.9747e-06
-5.95766e-06
5.66603e-06
-6.94698e-06
4.91511e-06
-7.70847e-06
3.81802e-06
-8.20557e-06
2.46763e-06
-8.41426e-06
9.52913e-07
-8.32074e-06
-6.38026e-07
-7.92127e-06
-2.21315e-06
-7.22478e-06
-3.67153e-06
-6.25777e-06
-4.90014e-06
-5.0713e-06
-5.77466e-06
-3.74844e-06
-6.16665e-06
-2.40972e-06
-5.95907e-06
-1.21321e-06
-5.06996e-06
-3.45558e-07
-3.48284e-06
-1.28912e-06
-3.89499e-07
1.68873e-06
-1.32994e-06
4.35534e-06
-2.59512e-06
6.17374e-06
-3.9903e-06
7.14325e-06
-5.36501e-06
7.34941e-06
-6.61191e-06
6.91293e-06
-7.65917e-06
5.96237e-06
-8.46082e-06
4.61967e-06
-8.98777e-06
2.99458e-06
-9.22091e-06
1.18605e-06
-9.14702e-06
-7.11923e-07
-8.75796e-06
-2.60221e-06
-8.05356e-06
-4.37593e-06
-7.04829e-06
-5.90541e-06
-5.78167e-06
-7.04128e-06
-4.33099e-06
-7.61733e-06
-2.82328e-06
-7.46678e-06
-1.44129e-06
-6.45195e-06
-4.16423e-07
-4.50771e-06
-1.70555e-06
-4.52987e-07
2.14172e-06
-1.52403e-06
5.42639e-06
-2.93142e-06
7.58114e-06
-4.44434e-06
8.65616e-06
-5.89788e-06
8.80295e-06
-7.18655e-06
8.2016e-06
-8.24966e-06
7.02548e-06
-9.05565e-06
5.42566e-06
-9.58856e-06
3.52749e-06
-9.83807e-06
1.43556e-06
-9.79346e-06
-7.56534e-07
-9.44181e-06
-2.95386e-06
-8.77076e-06
-5.04698e-06
-7.77668e-06
-6.89949e-06
-6.47862e-06
-8.33934e-06
-4.93764e-06
-9.1583e-06
-3.27828e-06
-9.12614e-06
-1.70513e-06
-8.02511e-06
-5.02527e-07
-5.71032e-06
-2.20807e-06
-5.28959e-07
2.67068e-06
-1.7416e-06
6.63903e-06
-3.28147e-06
9.12101e-06
-4.87657e-06
1.02513e-05
-6.35306e-06
1.02795e-05
-7.61756e-06
9.46609e-06
-8.63131e-06
8.03924e-06
-9.38643e-06
6.18078e-06
-9.88713e-06
4.02819e-06
-1.01367e-05
1.68516e-06
-1.01298e-05
-7.63491e-07
-9.84895e-06
-3.23469e-06
-9.26719e-06
-5.62873e-06
-8.35627e-06
-7.81041e-06
-7.10368e-06
-9.59192e-06
-5.53922e-06
-1.07228e-05
-3.76929e-06
-1.08961e-05
-2.01122e-06
-9.78317e-06
-6.09341e-07
-7.11219e-06
-2.81742e-06
-6.25349e-07
3.29603e-06
-1.99281e-06
8.0065e-06
-3.64216e-06
1.07704e-05
-5.25729e-06
1.18664e-05
-6.66778e-06
1.16899e-05
-7.80886e-06
1.06072e-05
-8.67863e-06
8.90901e-06
-9.30402e-06
6.80617e-06
-9.71708e-06
4.44125e-06
-9.93986e-06
1.90794e-06
-9.97547e-06
-7.2788e-07
-9.80383e-06
-3.40633e-06
-9.3822e-06
-6.05036e-06
-8.65242e-06
-8.5402e-06
-7.55854e-06
-1.06858e-05
-6.07945e-06
-1.22019e-05
-4.2786e-06
-1.26969e-05
-2.36548e-06
-1.16963e-05
-7.45195e-07
-8.73248e-06
-3.56261e-06
-7.56647e-07
4.05267e-06
-2.29271e-06
9.54256e-06
-4.00297e-06
1.24806e-05
-5.53335e-06
1.33968e-05
-6.74202e-06
1.28986e-05
-7.61834e-06
1.14835e-05
-8.2159e-06
9.50656e-06
-8.60782e-06
7.19809e-06
-8.86025e-06
4.69368e-06
-9.0177e-06
2.06539e-06
-9.09488e-06
-6.50691e-07
-9.07201e-06
-3.4292e-06
-8.89279e-06
-6.22958e-06
-8.46764e-06
-8.96535e-06
-7.68771e-06
-1.14657e-05
-6.45894e-06
-1.34306e-05
-4.76624e-06
-1.43896e-05
-2.77134e-06
-1.36912e-05
-9.23622e-07
-1.05802e-05
-4.48623e-06
-9.4835e-07
5.00102e-06
-2.65879e-06
1.1253e-05
-4.33082e-06
1.41526e-05
-5.60377e-06
1.46697e-05
-6.41187e-06
1.37067e-05
-6.83441e-06
1.1906e-05
-7.00009e-06
9.67224e-06
-7.03568e-06
7.23368e-06
-7.04252e-06
4.70052e-06
-7.08713e-06
2.11001e-06
-7.19711e-06
-5.40709e-07
-7.35724e-06
-3.26908e-06
-7.50453e-06
-6.08229e-06
-7.52423e-06
-8.94565e-06
-7.25361e-06
-1.17363e-05
-6.50763e-06
-1.41766e-05
-5.14845e-06
-1.57488e-05
-3.22208e-06
-1.56176e-05
-1.16629e-06
-1.2636e-05
-5.65252e-06
-1.2406e-06
6.24162e-06
-3.09418e-06
1.31066e-05
-4.52897e-06
1.55874e-05
-5.26762e-06
1.54084e-05
-5.40063e-06
1.38397e-05
-5.13895e-06
1.16443e-05
-4.69824e-06
9.23153e-06
-4.25458e-06
6.79001e-06
-3.93475e-06
4.38069e-06
-3.81914e-06
1.9944e-06
-3.94543e-06
-4.14413e-07
-4.30768e-06
-2.90684e-06
-4.84876e-06
-5.54121e-06
-5.44694e-06
-8.34747e-06
-5.90202e-06
-1.12813e-05
-5.93735e-06
-1.41413e-05
-5.2517e-06
-1.64344e-05
-3.67535e-06
-1.71939e-05
-1.50257e-06
-1.48088e-05
-7.15509e-06
-1.67673e-06
7.91835e-06
-3.52337e-06
1.49532e-05
-4.33532e-06
1.63994e-05
-4.12077e-06
1.51938e-05
-3.23765e-06
1.29566e-05
-2.05581e-06
1.04625e-05
-8.63403e-07
8.03913e-06
1.42102e-07
5.78451e-06
8.35025e-07
3.68777e-06
1.13995e-06
1.68947e-06
1.01773e-06
-2.92193e-07
4.61751e-07
-2.35086e-06
-4.93879e-07
-4.58559e-06
-1.75248e-06
-7.08887e-06
-3.11951e-06
-9.91422e-06
-4.26449e-06
-1.29963e-05
-4.71657e-06
-1.59824e-05
-3.9774e-06
-1.79331e-05
-1.94779e-06
-1.68384e-05
-9.10288e-06
-2.23279e-06
1.01511e-05
-3.59804e-06
1.63185e-05
-3.0941e-06
1.58954e-05
-1.37094e-06
1.34707e-05
8.57999e-07
1.07277e-05
3.10381e-06
8.21669e-06
5.07581e-06
6.06712e-06
6.61726e-06
4.24306e-06
7.64813e-06
2.65689e-06
8.12601e-06
1.21159e-06
8.02419e-06
-1.90367e-07
7.32377e-06
-1.65045e-06
6.01926e-06
-3.28107e-06
4.14184e-06
-5.21145e-06
1.80879e-06
-7.58117e-06
-6.94395e-07
-1.04931e-05
-2.81268e-06
-1.38641e-05
-3.67223e-06
-1.70735e-05
-2.41443e-06
-1.80962e-05
-1.15173e-05
-2.57482e-06
1.2726e-05
-2.18809e-06
1.59317e-05
7.071e-07
1.30002e-05
4.44996e-06
9.7278e-06
8.10355e-06
7.07408e-06
1.12613e-05
5.05898e-06
1.37789e-05
3.54952e-06
1.56296e-05
2.39228e-06
1.68275e-05
1.45903e-06
1.7388e-05
6.51074e-07
1.731e-05
-1.12384e-07
1.65678e-05
-9.0823e-07
1.51109e-05
-1.82414e-06
1.28758e-05
-2.97632e-06
9.82396e-06
-4.52936e-06
6.03469e-06
-6.70383e-06
1.89517e-06
-9.72458e-06
-1.56815e-06
-1.36102e-05
-2.46079e-06
-1.72035e-05
-1.39781e-05
-7.84948e-07
1.35109e-05
4.07931e-06
1.10675e-05
1.02923e-05
6.78724e-06
1.57826e-05
4.2375e-06
2.01398e-05
2.71687e-06
2.34322e-05
1.76665e-06
2.58276e-05
1.15406e-06
2.74823e-05
7.37579e-07
2.85107e-05
4.30681e-07
2.89811e-05
1.80598e-07
2.89174e-05
-4.86126e-08
2.82966e-05
-2.87441e-07
2.70442e-05
-5.71773e-07
2.50234e-05
-9.55507e-07
2.20269e-05
-1.53283e-06
1.77978e-05
-2.47472e-06
1.21614e-05
-4.08821e-06
5.47243e-06
-6.92126e-06
-1.30575e-07
-1.16005e-05
-1.41087e-05
1.35109e-05
2.45784e-05
3.13656e-05
3.56031e-05
3.832e-05
4.00867e-05
4.12407e-05
4.19783e-05
4.2409e-05
4.25896e-05
4.2541e-05
4.22535e-05
4.16817e-05
4.07262e-05
3.91934e-05
3.67187e-05
3.26305e-05
2.57092e-05
1.41087e-05
)
;

boundaryField
{
    movingWall
    {
        type            calculated;
        value           uniform 0;
    }
    fixedWalls
    {
        type            calculated;
        value           uniform 0;
    }
    frontAndBack
    {
        type            empty;
        value           nonuniform 0();
    }
}


// ************************************************************************* //
