/*--------------------------------*- C++ -*----------------------------------*\
| RapidCFD by simFlow (sim-flow.com)                                          |
\*---------------------------------------------------------------------------*/
FoamFile
{
    version     2.0;
    format      ascii;
    class       volVectorField;
    location    "0.1";
    object      U;
}
// * * * * * * * * * * * * * * * * * * * * * * * * * * * * * * * * * * * * * //

dimensions      [0 1 -1 0 0 0 0];

internalField   nonuniform List<vector> 
400
(
(0.00024906 -0.000245698 0)
(0.000137519 0.000110921 0)
(-0.00116086 0.00055693 0)
(-0.00342868 0.000871903 0)
(-0.00627802 0.00102967 0)
(-0.00931884 0.00104509 0)
(-0.0122032 0.00094262 0)
(-0.0146434 0.000748304 0)
(-0.0164179 0.000486875 0)
(-0.0173715 0.000181992 0)
(-0.0174166 -0.000142302 0)
(-0.0165373 -0.000460094 0)
(-0.014795 -0.000742664 0)
(-0.0123342 -0.000958456 0)
(-0.00938618 -0.00107427 0)
(-0.00626602 -0.00105828 0)
(-0.00335689 -0.00088601 0)
(-0.00107562 -0.000550025 0)
(0.000190872 -9.07027e-05 0)
(0.00026336 0.000257904 0)
(-7.66665e-05 -0.000165049 0)
(-0.00158639 0.00162047 0)
(-0.00560152 0.00356037 0)
(-0.0115279 0.00495315 0)
(-0.0185807 0.0056481 0)
(-0.0259611 0.00566341 0)
(-0.032908 0.00508409 0)
(-0.0387631 0.00402339 0)
(-0.0430071 0.00260407 0)
(-0.0452739 0.00095347 0)
(-0.0453603 -0.00079495 0)
(-0.0432367 -0.00249866 0)
(-0.039057 -0.00400495 0)
(-0.033167 -0.00515403 0)
(-0.0261025 -0.00578848 0)
(-0.0185713 -0.00577161 0)
(-0.0113994 -0.00501821 0)
(-0.00543743 -0.0035394 0)
(-0.0014746 -0.00154032 0)
(-4.30403e-05 0.000221869 0)
(-0.000520295 0.00107526 0)
(-0.0036516 0.00564497 0)
(-0.0104178 0.0100582 0)
(-0.0196668 0.0131854 0)
(-0.0302613 0.0146945 0)
(-0.0411332 0.014586 0)
(-0.0512568 0.0130286 0)
(-0.0597357 0.0102781 0)
(-0.065858 0.00663072 0)
(-0.0691206 0.00240574 0)
(-0.0692453 -0.00205779 0)
(-0.0661926 -0.00639922 0)
(-0.0601751 -0.010238 0)
(-0.0516654 -0.0131848 0)
(-0.0413924 -0.0148677 0)
(-0.0303138 -0.0149791 0)
(-0.0195406 -0.0133469 0)
(-0.0102171 -0.0100304 0)
(-0.00350004 -0.00547531 0)
(-0.000470961 -0.000938604 0)
(-0.000913673 0.00342464 0)
(-0.00560298 0.0120255 0)
(-0.0150656 0.0195995 0)
(-0.0274857 0.024784 0)
(-0.0413344 0.0271374 0)
(-0.0553038 0.0266809 0)
(-0.0681688 0.0237016 0)
(-0.0788699 0.018636 0)
(-0.0865709 0.0119981 0)
(-0.0906822 0.00434757 0)
(-0.0908752 -0.00371939 0)
(-0.0870974 -0.0115699 0)
(-0.0795877 -0.0185395 0)
(-0.0688888 -0.0239522 0)
(-0.0558483 -0.027166 0)
(-0.041597 -0.0276518 0)
(-0.0274706 -0.0251076 0)
(-0.0148886 -0.0196016 0)
(-0.00543134 -0.0117621 0)
(-0.000850414 -0.00318315 0)
(-0.00126043 0.00677053 0)
(-0.00742937 0.0206283 0)
(-0.0195282 0.0320009 0)
(-0.0350396 0.039466 0)
(-0.0520063 0.0425931 0)
(-0.068878 0.0415062 0)
(-0.0842589 0.0366685 0)
(-0.0969713 0.0287397 0)
(-0.106101 0.0184844 0)
(-0.111006 0.00672943 0)
(-0.111323 -0.00564753 0)
(-0.10698 -0.0177167 0)
(-0.098212 -0.0285002 0)
(-0.0855845 -0.0369984 0)
(-0.0700106 -0.0422509 0)
(-0.052748 -0.0434456 0)
(-0.0353366 -0.0400764 0)
(-0.0194919 -0.0321311 0)
(-0.00728032 -0.0203109 0)
(-0.00118908 -0.00641331 0)
(-0.00158762 0.0110496 0)
(-0.00920572 0.0314062 0)
(-0.0239219 0.0472409 0)
(-0.0424932 0.0571986 0)
(-0.0625048 0.0609918 0)
(-0.0821582 0.0589564 0)
(-0.0999075 0.0518116 0)
(-0.114493 0.0404928 0)
(-0.12496 0.0260462 0)
(-0.130646 0.00958041 0)
(-0.131164 -0.0077393 0)
(-0.126414 -0.0246812 0)
(-0.116597 -0.039942 0)
(-0.102257 -0.052169 0)
(-0.0843189 -0.0600309 0)
(-0.0641285 -0.0623518 0)
(-0.0434162 -0.058313 0)
(-0.0242197 -0.0476961 0)
(-0.0091572 -0.0311505 0)
(-0.00152169 -0.0105942 0)
(-0.00192126 0.0162524 0)
(-0.0110162 0.0443651 0)
(-0.0283833 0.0653264 0)
(-0.0500085 0.0779582 0)
(-0.0729915 0.0822632 0)
(-0.095289 0.0789222 0)
(-0.115234 0.0690098 0)
(-0.13153 0.0537995 0)
(-0.143228 0.0346463 0)
(-0.149678 0.0129433 0)
(-0.150488 -0.0098703 0)
(-0.14552 -0.0322776 0)
(-0.13491 -0.052656 0)
(-0.119123 -0.0692824 0)
(-0.0990389 -0.0803995 0)
(-0.0760311 -0.0843674 0)
(-0.0519915 -0.0799123 0)
(-0.0292961 -0.0664428 0)
(-0.0111891 -0.0444038 0)
(-0.00188429 -0.0157666 0)
(-0.00228471 0.0224188 0)
(-0.0129396 0.0595687 0)
(-0.0330337 0.0862859 0)
(-0.0576966 0.101697 0)
(-0.0835105 0.106276 0)
(-0.108208 0.101212 0)
(-0.130056 0.0880569 0)
(-0.147783 0.0684913 0)
(-0.160515 0.0442013 0)
(-0.167662 0.0168495 0)
(-0.168854 -0.0118879 0)
(-0.163911 -0.0402524 0)
(-0.152865 -0.066335 0)
(-0.136042 -0.0880437 0)
(-0.114183 -0.103146 0)
(-0.0886006 -0.109422 0)
(-0.061282 -0.104962 0)
(-0.0349309 -0.0885762 0)
(-0.0135026 -0.0602955 0)
(-0.00231228 -0.0220456 0)
(-0.00270178 0.0296326 0)
(-0.0150526 0.0771329 0)
(-0.0379729 0.110151 0)
(-0.0655961 0.128302 0)
(-0.0939522 0.132771 0)
(-0.1206 0.125473 0)
(-0.143827 0.108581 0)
(-0.162496 0.0842561 0)
(-0.175895 0.0545268 0)
(-0.18357 0.0212883 0)
(-0.185211 -0.0136133 0)
(-0.180601 -0.0482567 0)
(-0.169633 -0.0805157 0)
(-0.152409 -0.107964 0)
(-0.129412 -0.127862 0)
(-0.101757 -0.13729 0)
(-0.0713953 -0.133478 0)
(-0.0413 -0.114329 0)
(-0.0162232 -0.0791439 0)
(-0.00284354 -0.0296185 0)
(-0.00320474 0.0380251 0)
(-0.0174484 0.0972169 0)
(-0.0432929 0.136914 0)
(-0.0736662 0.157514 0)
(-0.104018 0.161264 0)
(-0.131834 0.151081 0)
(-0.155571 0.129936 0)
(-0.174371 0.100545 0)
(-0.187816 0.0652672 0)
(-0.195685 0.0261646 0)
(-0.197786 -0.0148516 0)
(-0.193883 -0.0558195 0)
(-0.183697 -0.0945131 0)
(-0.167015 -0.128255 0)
(-0.143912 -0.153813 0)
(-0.115097 -0.167457 0)
(-0.0822737 -0.16529 0)
(-0.0485349 -0.143891 0)
(-0.019488 -0.10134 0)
(-0.0035262 -0.0387481 0)
(-0.00384871 0.0477955 0)
(-0.0202697 0.120022 0)
(-0.0491007 0.166474 0)
(-0.0817722 0.188825 0)
(-0.113165 0.190904 0)
(-0.140876 0.177001 0)
(-0.163761 0.151081 0)
(-0.181448 0.11647 0)
(-0.193977 0.0758187 0)
(-0.201476 0.0312471 0)
(-0.20395 -0.0154147 0)
(-0.201177 -0.0623345 0)
(-0.192687 -0.107364 0)
(-0.177867 -0.147729 0)
(-0.156211 -0.179785 0)
(-0.127752 -0.198937 0)
(-0.0936128 -0.199875 0)
(-0.056708 -0.177301 0)
(-0.0234671 -0.127321 0)
(-0.00443257 -0.0497908 0)
(-0.00473759 0.0592615 0)
(-0.0237582 0.145797 0)
(-0.0555361 0.198543 0)
(-0.0896331 0.221317 0)
(-0.120481 0.220299 0)
(-0.146126 0.201623 0)
(-0.166156 0.170444 0)
(-0.180951 0.130706 0)
(-0.191191 0.0852553 0)
(-0.197477 0.0361138 0)
(-0.200092 -0.0151578 0)
(-0.198877 -0.0670722 0)
(-0.193188 -0.117794 0)
(-0.181958 -0.164695 0)
(-0.163935 -0.203915 0)
(-0.138164 -0.230039 0)
(-0.104713 -0.23611 0)
(-0.0657896 -0.214273 0)
(-0.0283949 -0.157524 0)
(-0.0056839 -0.0632391 0)
(-0.00606999 0.0729623 0)
(-0.0283228 0.174842 0)
(-0.0627452 0.232485 0)
(-0.0966587 0.25341 0)
(-0.124427 0.247272 0)
(-0.145126 0.222579 0)
(-0.159535 0.185805 0)
(-0.169078 0.141423 0)
(-0.17524 0.0922855 0)
(-0.179183 0.0401116 0)
(-0.181529 -0.0140269 0)
(-0.182245 -0.0692253 0)
(-0.180569 -0.124241 0)
(-0.175007 -0.176919 0)
(-0.163473 -0.223529 0)
(-0.143732 -0.25809 0)
(-0.1142 -0.27192 0)
(-0.0755293 -0.253894 0)
(-0.0346035 -0.192295 0)
(-0.00749301 -0.0798074 0)
(-0.00821428 0.0898391 0)
(-0.0346014 0.207432 0)
(-0.0707043 0.266975 0)
(-0.101524 0.282464 0)
(-0.122294 0.268544 0)
(-0.134038 0.23657 0)
(-0.13928 0.19425 0)
(-0.140731 0.146302 0)
(-0.14074 0.0952872 0)
(-0.141016 0.0423614 0)
(-0.142518 -0.012106 0)
(-0.145391 -0.0680073 0)
(-0.148876 -0.124965 0)
(-0.151202 -0.181682 0)
(-0.149545 -0.235072 0)
(-0.140248 -0.27914 0)
(-0.119487 -0.303789 0)
(-0.0851444 -0.294122 0)
(-0.0425154 -0.23167 0)
(-0.0102275 -0.100571 0)
(-0.0117902 0.111495 0)
(-0.043384 0.243525 0)
(-0.0786079 0.29933 0)
(-0.101168 0.304181 0)
(-0.109138 0.279429 0)
(-0.106762 0.239333 0)
(-0.0987839 0.192317 0)
(-0.0892112 0.142764 0)
(-0.0810747 0.0925037 0)
(-0.0764291 0.0418628 0)
(-0.0764466 -0.00964279 0)
(-0.0814628 -0.0628175 0)
(-0.0908962 -0.118326 0)
(-0.103026 -0.17608 0)
(-0.114687 -0.23427 0)
(-0.121048 -0.287818 0)
(-0.115752 -0.326182 0)
(-0.0925311 -0.33094 0)
(-0.052413 -0.274817 0)
(-0.014446 -0.127127 0)
(-0.0175686 0.140582 0)
(-0.0548763 0.281861 0)
(-0.0830743 0.324224 0)
(-0.088594 0.311806 0)
(-0.0758729 0.27368 0)
(-0.0536119 0.225968 0)
(-0.0287208 0.176543 0)
(-0.00598289 0.128523 0)
(0.0114774 0.0824934 0)
(0.0217319 0.0377574 0)
(0.0236784 -0.00701959 0)
(0.0168516 -0.0534705 0)
(0.00146025 -0.103259 0)
(-0.0213185 -0.157667 0)
(-0.0487635 -0.216746 0)
(-0.0757934 -0.277566 0)
(-0.0940856 -0.331032 0)
(-0.0923595 -0.357039 0)
(-0.0633914 -0.318851 0)
(-0.0206521 -0.161808 0)
(-0.0254621 0.181686 0)
(-0.0658573 0.317618 0)
(-0.0735613 0.331059 0)
(-0.0485032 0.294965 0)
(-0.00623615 0.243689 0)
(0.0403145 0.19183 0)
(0.083511 0.144532 0)
(0.119187 0.102546 0)
(0.145194 0.064845 0)
(0.160446 0.0297571 0)
(0.16432 -0.00463885 0)
(0.156367 -0.0404367 0)
(0.136287 -0.0799173 0)
(0.104178 -0.125483 0)
(0.0612274 -0.179225 0)
(0.0110237 -0.241496 0)
(-0.0383561 -0.307377 0)
(-0.0719714 -0.359718 0)
(-0.0701665 -0.356317 0)
(-0.0279314 -0.208269 0)
(-0.0296522 0.239183 0)
(-0.0608847 0.335709 0)
(-0.0220868 0.300352 0)
(0.050245 0.239892 0)
(0.127084 0.182655 0)
(0.196307 0.135075 0)
(0.253425 0.0971029 0)
(0.297153 0.066607 0)
(0.327584 0.0411883 0)
(0.34514 0.0187033 0)
(0.350027 -0.00277393 0)
(0.341997 -0.0251554 0)
(0.320266 -0.0506023 0)
(0.283592 -0.0818064 0)
(0.23071 -0.12217 0)
(0.161528 -0.175384 0)
(0.0794602 -0.243161 0)
(-0.00343508 -0.318909 0)
(-0.0547626 -0.36846 0)
(-0.0284751 -0.267568 0)
(0.00808808 0.281877 0)
(0.0197778 0.294965 0)
(0.139008 0.210925 0)
(0.264305 0.14339 0)
(0.36408 0.097072 0)
(0.439923 0.0656535 0)
(0.496147 0.0441208 0)
(0.536141 0.0287911 0)
(0.562609 0.0171358 0)
(0.577406 0.0074589 0)
(0.581466 -0.00148214 0)
(0.574814 -0.0107987 0)
(0.556501 -0.0217725 0)
(0.524435 -0.0362406 0)
(0.475207 -0.0571545 0)
(0.40411 -0.0892776 0)
(0.304891 -0.139642 0)
(0.173262 -0.216306 0)
(0.0411169 -0.311605 0)
(0.0184228 -0.299985 0)
(0.299611 0.146098 0)
(0.396287 0.127508 0)
(0.557423 0.0760851 0)
(0.674455 0.0437098 0)
(0.743801 0.0255524 0)
(0.787001 0.0152203 0)
(0.815267 0.00919199 0)
(0.83368 0.00549352 0)
(0.845068 0.00301757 0)
(0.851032 0.00114677 0)
(0.852324 -0.000495141 0)
(0.849057 -0.00220496 0)
(0.840707 -0.00432403 0)
(0.825893 -0.00740681 0)
(0.801883 -0.0125139 0)
(0.763481 -0.021755 0)
(0.699021 -0.0392669 0)
(0.583912 -0.0726477 0)
(0.415819 -0.127862 0)
(0.308822 -0.14947 0)
)
;

boundaryField
{
    movingWall
    {
        type            fixedValue;
        value           uniform (1 0 0);
    }
    fixedWalls
    {
        type            fixedValue;
        value           uniform (0 0 0);
    }
    frontAndBack
    {
        type            empty;
    }
}


// ************************************************************************* //
