/*--------------------------------*- C++ -*----------------------------------*\
| RapidCFD by simFlow (sim-flow.com)                                          |
\*---------------------------------------------------------------------------*/
FoamFile
{
    version     2.0;
    format      ascii;
    class       volScalarField;
    location    "0.3";
    object      p;
}
// * * * * * * * * * * * * * * * * * * * * * * * * * * * * * * * * * * * * * //

dimensions      [0 2 -2 0 0 0 0];

internalField   nonuniform List<scalar> 
400
(
-2.03204e-06
-0.00583237
-0.0129697
-0.0184209
-0.0204378
-0.0182439
-0.0117797
-0.00149032
0.0118295
0.0271398
0.0432335
0.0588106
0.0725651
0.0832942
0.0900383
0.0922529
0.0900126
0.0842319
0.07687
0.0710574
0.00577149
-0.000227284
-0.00581228
-0.00955014
-0.0106061
-0.00843975
-0.00297716
0.00546637
0.0162943
0.0287022
0.0417392
0.0543745
0.0655742
0.0743973
0.0801076
0.0823034
0.0810656
0.077044
0.0712644
0.065309
0.0133233
0.00502316
-0.00100483
-0.00443197
-0.00528133
-0.00327212
0.00159411
0.00901902
0.018493
0.0293397
0.0407552
0.0518589
0.0617573
0.0696249
0.0747955
0.0768669
0.0758311
0.0720762
0.0657968
0.057528
0.0201262
0.00868442
0.00121546
-0.00267822
-0.00373124
-0.00189411
0.00272253
0.00977564
0.0187712
0.0290855
0.0399821
0.0506438
0.0602224
0.0679052
0.0729925
0.0749912
0.0737562
0.0694473
0.0615953
0.0500963
0.024488
0.00976093
0.000578846
-0.00399708
-0.00531179
-0.0035165
0.00116574
0.00832557
0.0174529
0.0279398
0.0390756
0.0500603
0.0600391
0.0681551
0.0736165
0.0757882
0.0743601
0.0692817
0.0595188
0.0445319
0.0251637
0.00713777
-0.00381299
-0.00906741
-0.0105217
-0.0085091
-0.00336564
0.00442075
0.0143047
0.0256703
0.037805
0.0498943
0.061039
0.0702939
0.0767255
0.079508
0.0781307
0.0723261
0.060533
0.0418855
0.0210799
-0.000274173
-0.0129451
-0.0187192
-0.020039
-0.0174226
-0.0113267
-0.00232778
0.00898245
0.0219682
0.0359016
0.0499362
0.0631038
0.0743368
0.0825135
0.0865613
0.085713
0.07944
0.0656144
0.0430674
0.0111306
-0.013629
-0.0278848
-0.0338634
-0.0346121
-0.0308656
-0.0232205
-0.0123525
0.00109775
0.0164769
0.0330454
0.0499263
0.0660759
0.0802823
0.091193
0.0974224
0.0978629
0.0916291
0.0758904
0.049112
-0.00597746
-0.0342759
-0.0498787
-0.0555568
-0.0550978
-0.0495219
-0.0396004
-0.0261197
-0.00976322
0.008817
0.0288949
0.0495872
0.069791
0.0881478
0.103041
0.112694
0.115543
0.110185
0.0928281
0.0614063
-0.0318651
-0.0638838
-0.0804244
-0.0850144
-0.0824269
-0.0740848
-0.0609869
-0.0440421
-0.0239567
-0.00134189
0.0231406
0.0486558
0.07409
0.0979663
0.11839
0.133119
0.139982
0.136811
0.118434
0.0819278
-0.0686728
-0.104609
-0.121351
-0.123596
-0.117521
-0.105132
-0.0877234
-0.0663302
-0.0416413
-0.0141597
0.0156014
0.0469488
0.078851
0.109788
0.137618
0.159579
0.17272
0.173771
0.155513
0.113564
-0.119406
-0.159361
-0.17492
-0.172762
-0.161153
-0.142934
-0.119763
-0.0927812
-0.0625812
-0.0294511
0.00636963
0.0444698
0.0840509
0.123698
0.161131
0.19308
0.215661
0.22407
0.208043
0.160624
-0.18863
-0.232245
-0.243943
-0.233952
-0.213699
-0.187159
-0.156377
-0.122505
-0.0859014
-0.0464753
-0.00401754
0.0415355
0.0898383
0.139825
0.189314
0.234683
0.271068
0.291657
0.281734
0.229766
-0.283975
-0.329307
-0.331835
-0.308284
-0.274713
-0.236445
-0.195769
-0.153614
-0.109843
-0.0637482
-0.0144407
0.0388604
0.0965506
0.158272
0.222369
0.285282
0.34139
0.381567
0.384905
0.331823
-0.419319
-0.459674
-0.442354
-0.395797
-0.342134
-0.287745
-0.234621
-0.182934
-0.131613
-0.078988
-0.0232168
0.0374723
0.10455
0.178833
0.259856
0.344964
0.428609
0.499692
0.529666
0.48538
-0.620533
-0.636747
-0.578682
-0.494199
-0.411247
-0.335664
-0.267786
-0.205982
-0.14754
-0.0893862
-0.028429
0.0383451
0.113803
0.200467
0.29997
0.412019
0.533022
0.651767
0.732762
0.722384
-0.935926
-0.878519
-0.741747
-0.597955
-0.4744
-0.372667
-0.288875
-0.217768
-0.153958
-0.0924677
-0.0287207
0.0416922
0.12326
0.220714
0.33892
0.482148
0.651989
0.841333
1.01526
1.09749
-1.47643
-1.20664
-0.920511
-0.691396
-0.517314
-0.387553
-0.290069
-0.213344
-0.148129
-0.08722
-0.0245815
0.0454538
0.128934
0.233066
0.367098
0.542672
0.771285
1.05931
1.40328
1.73013
-2.53965
-1.63056
-1.04445
-0.710969
-0.495761
-0.352104
-0.25454
-0.183591
-0.126176
-0.0736004
-0.0192732
0.0427834
0.119209
0.218779
0.354808
0.547978
0.826386
1.23657
1.91167
2.92418
-4.36667
-2.04464
-0.973552
-0.563192
-0.357859
-0.240159
-0.170131
-0.123793
-0.0874891
-0.0535161
-0.0166586
0.0276577
0.0846051
0.161727
0.272408
0.442095
0.718214
1.2257
2.41103
4.84852
)
;

boundaryField
{
    movingWall
    {
        type            zeroGradient;
    }
    fixedWalls
    {
        type            zeroGradient;
    }
    frontAndBack
    {
        type            empty;
    }
}


// ************************************************************************* //
