/*--------------------------------*- C++ -*----------------------------------*\
| RapidCFD by simFlow (sim-flow.com)                                          |
\*---------------------------------------------------------------------------*/
FoamFile
{
    version     2.0;
    format      ascii;
    class       surfaceScalarField;
    location    "0.3";
    object      phi;
}
// * * * * * * * * * * * * * * * * * * * * * * * * * * * * * * * * * * * * * //

dimensions      [0 3 -1 0 0 0 0];

internalField   nonuniform List<scalar> 
760
(
1.42564e-08
-1.42388e-08
-2.21968e-08
3.6453e-08
-1.14253e-07
9.20556e-08
-2.45467e-07
1.31213e-07
-3.96058e-07
1.5059e-07
-5.47311e-07
1.51252e-07
-6.83121e-07
1.3581e-07
-7.90582e-07
1.0746e-07
-8.60119e-07
6.95367e-08
-8.8555e-07
2.54313e-08
-8.64232e-07
-2.13187e-08
-7.97308e-07
-6.69234e-08
-6.90017e-07
-1.07291e-07
-5.5192e-07
-1.38097e-07
-3.96907e-07
-1.55013e-07
-2.42729e-07
-1.54179e-07
-1.09725e-07
-1.33003e-07
-1.84165e-08
-9.13091e-08
1.56873e-08
-3.41039e-08
1.56872e-08
-3.4199e-08
1.99599e-08
-1.80345e-07
1.82599e-07
-4.3394e-07
3.45651e-07
-7.64358e-07
4.61631e-07
-1.1321e-06
5.18337e-07
-1.49711e-06
5.16253e-07
-1.82317e-06
4.61875e-07
-2.08035e-06
3.64636e-07
-2.24607e-06
2.35262e-07
-2.30583e-06
8.51919e-08
-2.2537e-06
-7.34518e-08
-2.09286e-06
-2.27759e-07
-1.8361e-06
-3.64055e-07
-1.50591e-06
-4.68286e-07
-1.13399e-06
-5.2694e-07
-7.59459e-07
-5.28706e-07
-4.25367e-07
-4.67097e-07
-1.7268e-07
-3.43997e-07
-3.08003e-08
-1.75984e-07
-1.51134e-08
-9.22138e-08
1.12173e-07
-3.56956e-07
4.4734e-07
-7.64481e-07
7.53175e-07
-1.26836e-06
9.65515e-07
-1.81453e-06
1.0645e-06
-2.34883e-06
1.05055e-06
-2.82217e-06
9.3522e-07
-3.19365e-06
7.36111e-07
-3.4323e-06
4.73908e-07
-3.51819e-06
1.7109e-07
-3.44326e-06
-1.48382e-07
-3.21197e-06
-4.59051e-07
-2.84186e-06
-7.3417e-07
-2.3636e-06
-9.46544e-07
-1.82016e-06
-1.07038e-06
-1.26438e-06
-1.08448e-06
-7.54461e-07
-9.77018e-07
-3.46943e-07
-7.51515e-07
-8.73289e-08
-4.35597e-07
-1.02443e-07
-1.45194e-07
2.57367e-07
-5.25409e-07
8.27553e-07
-1.08153e-06
1.30929e-06
-1.74735e-06
1.63133e-06
-2.4541e-06
1.77126e-06
-3.13609e-06
1.73254e-06
-3.73495e-06
1.53408e-06
-4.20253e-06
1.20369e-06
-4.50252e-06
7.73896e-07
-4.61152e-06
2.80092e-07
-4.51986e-06
-2.40039e-07
-4.23237e-06
-7.46544e-07
-3.76905e-06
-1.19749e-06
-3.16537e-06
-1.55022e-06
-2.47167e-06
-1.76408e-06
-1.75093e-06
-1.80523e-06
-1.07442e-06
-1.65352e-06
-5.15098e-07
-1.31084e-06
-1.39304e-07
-8.11391e-07
-2.41747e-07
-1.93591e-07
4.50958e-07
-6.84939e-07
1.3189e-06
-1.3855e-06
2.00986e-06
-2.20705e-06
2.45288e-06
-3.06521e-06
2.62941e-06
-3.88345e-06
2.55078e-06
-4.59612e-06
2.24675e-06
-5.15015e-06
1.75772e-06
-5.50599e-06
1.12973e-06
-5.63806e-06
4.12162e-07
-5.5353e-06
-3.42793e-07
-5.20196e-06
-1.07989e-06
-4.65851e-06
-1.74094e-06
-3.94265e-06
-2.26608e-06
-3.10947e-06
-2.59726e-06
-2.23033e-06
-2.68437e-06
-1.38953e-06
-2.49432e-06
-6.78448e-07
-2.02193e-06
-1.87753e-07
-1.30209e-06
-4.295e-07
-2.39921e-07
6.9088e-07
-8.40287e-07
1.91926e-06
-1.68316e-06
2.85273e-06
-2.65686e-06
3.42658e-06
-3.66057e-06
3.63312e-06
-4.60744e-06
3.49764e-06
-5.42597e-06
3.06528e-06
-6.06014e-06
2.3919e-06
-6.4689e-06
1.5385e-06
-6.62559e-06
5.68852e-07
-6.51787e-06
-4.50511e-07
-6.14839e-06
-1.44938e-06
-5.53617e-06
-2.35315e-06
-4.71862e-06
-3.08364e-06
-3.75322e-06
-3.56266e-06
-2.71831e-06
-3.71928e-06
-1.71143e-06
-3.50119e-06
-8.44609e-07
-2.88875e-06
-2.36164e-07
-1.91053e-06
-6.65664e-07
-2.86728e-07
9.77608e-07
-9.9703e-07
2.62957e-06
-1.98197e-06
3.83768e-06
-3.10477e-06
4.54938e-06
-4.24772e-06
4.77606e-06
-5.31453e-06
4.56445e-06
-6.22977e-06
3.98053e-06
-6.93679e-06
3.09892e-06
-7.39509e-06
1.99679e-06
-7.57822e-06
7.51983e-07
-7.47277e-06
-5.55961e-07
-7.07875e-06
-1.8434e-06
-6.41156e-06
-3.02034e-06
-5.50531e-06
-3.98989e-06
-4.41685e-06
-4.65112e-06
-3.22922e-06
-4.90691e-06
-2.05286e-06
-4.67755e-06
-1.02249e-06
-3.91912e-06
-2.88267e-07
-2.64475e-06
-9.53931e-07
-3.36318e-07
1.31393e-06
-1.16033e-06
3.45358e-06
-2.28793e-06
4.96528e-06
-3.55486e-06
5.81632e-06
-4.82644e-06
6.04764e-06
-5.99884e-06
5.73685e-06
-6.99577e-06
4.97745e-06
-7.76322e-06
3.86638e-06
-8.26417e-06
2.49774e-06
-8.47429e-06
9.62107e-07
-8.37965e-06
-6.50603e-07
-7.97661e-06
-2.24644e-06
-7.27432e-06
-3.72262e-06
-6.29974e-06
-4.96447e-06
-5.10451e-06
-5.84636e-06
-3.77241e-06
-6.23901e-06
-2.42481e-06
-6.02515e-06
-1.22071e-06
-5.12322e-06
-3.47696e-07
-3.51776e-06
-1.30163e-06
-3.9095e-07
1.70488e-06
-1.33486e-06
4.39749e-06
-2.60493e-06
6.23535e-06
-4.00586e-06
7.21725e-06
-5.3867e-06
7.42848e-06
-6.63961e-06
6.98975e-06
-7.69227e-06
6.03011e-06
-8.49828e-06
4.67239e-06
-9.02821e-06
3.02767e-06
-9.26272e-06
1.19661e-06
-9.18845e-06
-7.24871e-07
-8.7973e-06
-2.6376e-06
-8.0892e-06
-4.43072e-06
-7.07888e-06
-5.97479e-06
-5.80621e-06
-7.11902e-06
-4.34897e-06
-7.69625e-06
-2.83476e-06
-7.53936e-06
-1.44707e-06
-6.51091e-06
-4.18091e-07
-4.54674e-06
-1.71972e-06
-4.53452e-07
2.15833e-06
-1.52568e-06
5.46971e-06
-2.93487e-06
7.64454e-06
-4.4501e-06
8.73248e-06
-5.9063e-06
8.88468e-06
-7.19778e-06
8.28123e-06
-8.26362e-06
7.09595e-06
-9.07202e-06
5.48079e-06
-9.60682e-06
3.56247e-06
-9.85755e-06
1.44733e-06
-9.81337e-06
-7.69042e-07
-9.46133e-06
-2.98964e-06
-8.78906e-06
-5.10299e-06
-7.79296e-06
-6.97089e-06
-6.49217e-06
-8.41981e-06
-4.94794e-06
-9.24049e-06
-3.28509e-06
-9.20221e-06
-1.70867e-06
-8.08734e-06
-5.03584e-07
-5.75182e-06
-2.2233e-06
-5.2834e-07
2.68667e-06
-1.73967e-06
6.68105e-06
-3.278e-06
9.18286e-06
-4.87166e-06
1.03261e-05
-6.34706e-06
1.03601e-05
-7.61088e-06
9.54506e-06
-8.62442e-06
8.10949e-06
-9.37975e-06
6.23612e-06
-9.88106e-06
4.06378e-06
-1.01316e-05
1.69787e-06
-1.01258e-05
-7.74796e-07
-9.84639e-06
-3.2691e-06
-9.26603e-06
-5.68334e-06
-8.35637e-06
-7.88056e-06
-7.10472e-06
-9.67146e-06
-5.54071e-06
-1.08045e-05
-3.77071e-06
-1.09722e-05
-2.01217e-06
-9.84588e-06
-6.09688e-07
-7.1543e-06
-2.83299e-06
-6.23675e-07
3.31034e-06
-1.98741e-06
8.04478e-06
-3.63197e-06
1.08274e-05
-5.24202e-06
1.19362e-05
-6.64769e-06
1.17658e-05
-7.78462e-06
1.0682e-05
-8.65119e-06
8.97605e-06
-9.27449e-06
6.85943e-06
-9.68673e-06
4.47602e-06
-9.91001e-06
1.92115e-06
-9.94742e-06
-7.37387e-07
-9.77876e-06
-3.43776e-06
-9.36104e-06
-6.10106e-06
-8.63574e-06
-8.60586e-06
-7.54647e-06
-1.07607e-05
-6.07164e-06
-1.22793e-05
-4.2743e-06
-1.27695e-05
-2.36366e-06
-1.17565e-05
-7.44781e-07
-8.77318e-06
-3.57777e-06
-7.5409e-07
4.06443e-06
-2.28439e-06
9.57509e-06
-3.9871e-06
1.25301e-05
-5.50923e-06
1.34583e-05
-6.70979e-06
1.29663e-05
-7.57879e-06
1.1551e-05
-8.17032e-06
9.56759e-06
-8.55793e-06
7.24704e-06
-8.80804e-06
4.72614e-06
-8.96537e-06
2.07848e-06
-9.04468e-06
-6.5808e-07
-9.02604e-06
-3.4564e-06
-8.85285e-06
-6.27425e-06
-8.43503e-06
-9.02367e-06
-7.66307e-06
-1.15327e-05
-6.44211e-06
-1.35003e-05
-4.75632e-06
-1.44553e-05
-2.76678e-06
-1.37461e-05
-9.22443e-07
-1.06175e-05
-4.50021e-06
-9.45223e-07
5.00966e-06
-2.64854e-06
1.12784e-05
-4.31109e-06
1.41927e-05
-5.57346e-06
1.47207e-05
-6.3709e-06
1.37638e-05
-6.78354e-06
1.19636e-05
-6.9408e-06
9.72485e-06
-6.97006e-06
7.2763e-06
-6.97313e-06
4.7292e-06
-7.01685e-06
2.1222e-06
-7.12894e-06
-5.45991e-07
-7.29407e-06
-3.29127e-06
-7.44891e-06
-6.11941e-06
-7.47811e-06
-8.99447e-06
-7.21811e-06
-1.17927e-05
-6.48288e-06
-1.42355e-05
-5.13351e-06
-1.58047e-05
-3.21502e-06
-1.56646e-05
-1.1644e-06
-1.26681e-05
-5.66461e-06
-1.23733e-06
6.24699e-06
-3.08334e-06
1.31244e-05
-4.50781e-06
1.56171e-05
-5.23464e-06
1.54475e-05
-5.35544e-06
1.38846e-05
-5.08211e-06
1.16903e-05
-4.63121e-06
9.27395e-06
-4.17961e-06
6.82469e-06
-3.85473e-06
4.40432e-06
-3.7374e-06
2.00487e-06
-3.86549e-06
-4.17896e-07
-4.23298e-06
-2.92379e-06
-4.78238e-06
-5.57e-06
-5.39132e-06
-8.38553e-06
-5.85869e-06
-1.13253e-05
-5.90671e-06
-1.41875e-05
-5.23291e-06
-1.64785e-05
-3.66631e-06
-1.72312e-05
-1.50009e-06
-1.48344e-05
-7.1647e-06
-1.67382e-06
7.92081e-06
-3.51342e-06
1.4964e-05
-4.3154e-06
1.64191e-05
-4.08903e-06
1.52211e-05
-3.19326e-06
1.29888e-05
-1.99901e-06
1.0496e-05
-7.9546e-07
8.07041e-06
2.18982e-07
5.81025e-06
9.17854e-07
3.70544e-06
1.22522e-06
1.6975e-06
1.10169e-06
-2.94364e-07
5.40711e-07
-2.36281e-06
-4.2324e-07
-4.60605e-06
-1.69283e-06
-7.11594e-06
-3.07261e-06
-9.94553e-06
-4.23097e-06
-1.30291e-05
-4.69574e-06
-1.60137e-05
-3.96723e-06
-1.79597e-05
-1.94494e-06
-1.68567e-05
-9.10964e-06
-2.2307e-06
1.01515e-05
-3.59033e-06
1.63237e-05
-3.07786e-06
1.59066e-05
-1.34401e-06
1.34873e-05
8.96849e-07
1.07479e-05
3.15473e-06
8.23817e-06
5.13783e-06
6.08731e-06
6.68836e-06
4.25971e-06
7.72548e-06
2.66833e-06
8.20619e-06
1.21679e-06
8.10353e-06
-1.91707e-07
7.3987e-06
-1.65798e-06
6.08656e-06
-3.29391e-06
4.19894e-06
-5.22831e-06
1.85396e-06
-7.60055e-06
-6.61855e-07
-1.05133e-05
-2.79226e-06
-1.38833e-05
-3.66213e-06
-1.70898e-05
-2.41155e-06
-1.81072e-05
-1.15212e-05
-2.57382e-06
1.27253e-05
-2.18348e-06
1.59333e-05
7.18014e-07
1.30052e-05
4.46947e-06
9.73584e-06
8.13314e-06
7.08426e-06
1.13014e-05
5.06994e-06
1.38289e-05
3.55983e-06
1.56878e-05
2.40075e-06
1.68914e-05
1.46477e-06
1.74546e-05
6.53594e-07
1.73761e-05
-1.13195e-07
1.66302e-05
-9.12132e-07
1.51669e-05
-1.83063e-06
1.29233e-05
-2.98469e-06
9.86159e-06
-4.53883e-06
6.06185e-06
-6.71358e-06
1.91227e-06
-9.73375e-06
-1.55966e-06
-1.36179e-05
-2.45835e-06
-1.72085e-05
-1.39795e-05
-7.85013e-07
1.35103e-05
4.08079e-06
1.10675e-05
1.02975e-05
6.78842e-06
1.57936e-05
4.23978e-06
2.01579e-05
2.71989e-06
2.34579e-05
1.76993e-06
2.58607e-05
1.15712e-06
2.75214e-05
7.40042e-07
2.85538e-05
4.32286e-07
2.90262e-05
1.81219e-07
2.8962e-05
-4.89792e-08
2.83386e-05
-2.88692e-07
2.70817e-05
-5.7373e-07
2.50549e-05
-9.57943e-07
2.20516e-05
-1.53551e-06
1.78154e-05
-2.4774e-06
1.21723e-05
-4.09067e-06
5.4777e-06
-6.92323e-06
-1.29175e-07
-1.16017e-05
-1.41087e-05
1.35103e-05
2.45779e-05
3.13663e-05
3.56061e-05
3.83259e-05
4.00959e-05
4.1253e-05
4.1993e-05
4.24253e-05
4.26065e-05
4.25576e-05
4.22689e-05
4.16951e-05
4.07372e-05
3.92017e-05
3.67243e-05
3.26336e-05
2.57104e-05
1.41087e-05
)
;

boundaryField
{
    movingWall
    {
        type            calculated;
        value           uniform 0;
    }
    fixedWalls
    {
        type            calculated;
        value           uniform 0;
    }
    frontAndBack
    {
        type            empty;
        value           nonuniform 0();
    }
}


// ************************************************************************* //
