/*--------------------------------*- C++ -*----------------------------------*\
| RapidCFD by simFlow (sim-flow.com)                                          |
\*---------------------------------------------------------------------------*/
FoamFile
{
    version     2.0;
    format      ascii;
    class       volVectorField;
    location    "0.3";
    object      U;
}
// * * * * * * * * * * * * * * * * * * * * * * * * * * * * * * * * * * * * * //

dimensions      [0 1 -1 0 0 0 0];

internalField   nonuniform List<vector> 
400
(
(0.000253646 -0.000250121 0)
(0.000141596 0.000111588 0)
(-0.00117668 0.000564614 0)
(-0.00348069 0.000884913 0)
(-0.0063768 0.0010456 0)
(-0.00946849 0.00106163 0)
(-0.0124017 0.000957738 0)
(-0.0148834 0.000760352 0)
(-0.0166878 0.000494592 0)
(-0.0176566 0.000184545 0)
(-0.0177005 -0.000145247 0)
(-0.0168035 -0.000468312 0)
(-0.0150287 -0.000755331 0)
(-0.012524 -0.000974161 0)
(-0.00952557 -0.00109108 0)
(-0.00635446 -0.0010739 0)
(-0.00340039 -0.000898041 0)
(-0.00108637 -0.000556347 0)
(0.000196384 -9.03705e-05 0)
(0.00026783 0.000262353 0)
(-7.7295e-05 -0.000168913 0)
(-0.00161111 0.00164499 0)
(-0.00569215 0.00361712 0)
(-0.0117176 0.00503442 0)
(-0.0188905 0.00574271 0)
(-0.0263983 0.00575967 0)
(-0.0334662 0.00517119 0)
(-0.0394233 0.00409214 0)
(-0.0437402 0.00264741 0)
(-0.0460432 0.000966869 0)
(-0.0461256 -0.000813113 0)
(-0.0439577 -0.00254681 0)
(-0.039698 -0.00407825 0)
(-0.0337 -0.00524463 0)
(-0.0265113 -0.00588605 0)
(-0.0188532 -0.00586437 0)
(-0.0115658 -0.00509436 0)
(-0.00551292 -0.00358916 0)
(-0.001493 -0.00155905 0)
(-4.25826e-05 0.000227415 0)
(-0.000528486 0.00109174 0)
(-0.00371091 0.00573602 0)
(-0.0105879 0.0102237 0)
(-0.0199899 0.0134066 0)
(-0.0307622 0.014945 0)
(-0.0418188 0.0148375 0)
(-0.0521156 0.0132546 0)
(-0.0607394 0.0104553 0)
(-0.0669642 0.00674146 0)
(-0.0702773 0.00243873 0)
(-0.0703953 -0.00210627 0)
(-0.0672794 -0.00652481 0)
(-0.0611479 -0.0104282 0)
(-0.0524847 -0.0134199 0)
(-0.0420341 -0.0151222 0)
(-0.0307718 -0.0152244 0)
(-0.0198277 -0.0135549 0)
(-0.0103629 -0.0101782 0)
(-0.00354828 -0.0055507 0)
(-0.000476811 -0.000948794 0)
(-0.00092811 0.00347963 0)
(-0.00569096 0.0122198 0)
(-0.0153005 0.0199201 0)
(-0.0279147 0.0251958 0)
(-0.0419823 0.0275947 0)
(-0.056175 0.0271352 0)
(-0.0692471 0.0241069 0)
(-0.08012 0.0189523 0)
(-0.0879421 0.0121946 0)
(-0.0921125 0.00440484 0)
(-0.0922972 -0.00380749 0)
(-0.0884443 -0.0117954 0)
(-0.0807997 -0.0188804 0)
(-0.0699184 -0.0243742 0)
(-0.0566656 -0.0276253 0)
(-0.0421922 -0.0280995 0)
(-0.0278549 -0.0254957 0)
(-0.0150927 -0.0198902 0)
(-0.00550469 -0.0119269 0)
(-0.000861538 -0.00322466 0)
(-0.00127881 0.00687727 0)
(-0.00753548 0.020952 0)
(-0.0198034 0.0325078 0)
(-0.0355326 0.0401 0)
(-0.0527401 0.0432867 0)
(-0.0698542 0.0421893 0)
(-0.0854582 0.0372745 0)
(-0.0983546 0.0292107 0)
(-0.107613 0.0187758 0)
(-0.112582 0.00681337 0)
(-0.112891 -0.00577965 0)
(-0.108468 -0.018053 0)
(-0.0995566 -0.0290088 0)
(-0.0867344 -0.0376295 0)
(-0.0709318 -0.0429415 0)
(-0.0534274 -0.0441254 0)
(-0.0357827 -0.0406756 0)
(-0.0197341 -0.0325901 0)
(-0.00737017 -0.0205891 0)
(-0.0012036 -0.00649771 0)
(-0.00160741 0.0112147 0)
(-0.00931745 0.0318721 0)
(-0.0242079 0.047948 0)
(-0.0430002 0.0580672 0)
(-0.0632535 0.061932 0)
(-0.0831484 0.0598762 0)
(-0.101119 0.0526239 0)
(-0.115886 0.0411225 0)
(-0.126481 0.0264351 0)
(-0.13223 0.00969238 0)
(-0.132742 -0.00791529 0)
(-0.127916 -0.0251296 0)
(-0.11796 -0.0406213 0)
(-0.103428 -0.0530147 0)
(-0.0852646 -0.0609611 0)
(-0.0648323 -0.063275 0)
(-0.0438833 -0.0591374 0)
(-0.0244764 -0.0483407 0)
(-0.00925382 -0.0315553 0)
(-0.00153766 -0.0107278 0)
(-0.00193994 0.0164758 0)
(-0.0111207 0.0449707 0)
(-0.0286489 0.0662281 0)
(-0.0504773 0.079053 0)
(-0.0736813 0.0834395 0)
(-0.096199 0.0800675 0)
(-0.116346 0.0700186 0)
(-0.132808 0.0545804 0)
(-0.144624 0.035129 0)
(-0.151134 0.013084 0)
(-0.151942 -0.0100852 0)
(-0.146908 -0.0328294 0)
(-0.136175 -0.0534948 0)
(-0.120217 -0.0703308 0)
(-0.0999281 -0.0815585 0)
(-0.0766979 -0.0855259 0)
(-0.0524378 -0.0809575 0)
(-0.0295435 -0.0672721 0)
(-0.0112831 -0.0449364 0)
(-0.00189998 -0.0159505 0)
(-0.00229993 0.0226932 0)
(-0.0130245 0.0602963 0)
(-0.0332495 0.0873569 0)
(-0.0580774 0.102988 0)
(-0.0840712 0.107657 0)
(-0.108949 0.102553 0)
(-0.130962 0.089237 0)
(-0.148828 0.0694054 0)
(-0.16166 0.0447684 0)
(-0.168861 0.017019 0)
(-0.170056 -0.0121319 0)
(-0.165065 -0.0408893 0)
(-0.153924 -0.0673084 0)
(-0.136965 -0.0892658 0)
(-0.114938 -0.104504 0)
(-0.0891726 -0.110788 0)
(-0.0616684 -0.106205 0)
(-0.0351471 -0.0895733 0)
(-0.0135853 -0.0609455 0)
(-0.00232624 -0.0222761 0)
(-0.00271157 0.0299449 0)
(-0.0151076 0.077951 0)
(-0.0381137 0.111348 0)
(-0.0658466 0.12974 0)
(-0.0943242 0.134307 0)
(-0.121096 0.126964 0)
(-0.14444 0.109894 0)
(-0.163208 0.0852754 0)
(-0.176682 0.0551633 0)
(-0.184401 0.0214859 0)
(-0.186052 -0.0138729 0)
(-0.181417 -0.0489521 0)
(-0.17039 -0.0815865 0)
(-0.153077 -0.109315 0)
(-0.129968 -0.129371 0)
(-0.102183 -0.138819 0)
(-0.0716877 -0.134878 0)
(-0.0414659 -0.115462 0)
(-0.0162876 -0.0798905 0)
(-0.00285462 -0.0298878 0)
(-0.00320763 0.0383572 0)
(-0.0174661 0.0980832 0)
(-0.0433407 0.13818 0)
(-0.0737559 0.159035 0)
(-0.104159 0.16289 0)
(-0.132031 0.152662 0)
(-0.155824 0.131332 0)
(-0.174677 0.101633 0)
(-0.188166 0.0659535 0)
(-0.196066 0.0263885 0)
(-0.198184 -0.0151107 0)
(-0.194281 -0.0565404 0)
(-0.184079 -0.0956345 0)
(-0.167365 -0.12968 0)
(-0.144214 -0.155413 0)
(-0.115337 -0.169087 0)
(-0.0824449 -0.166793 0)
(-0.0486355 -0.145116 0)
(-0.0195285 -0.102154 0)
(-0.00353352 -0.0390452 0)
(-0.00384399 0.0481262 0)
(-0.0202463 0.120887 0)
(-0.049047 0.167743 0)
(-0.0816871 0.190355 0)
(-0.113054 0.192546 0)
(-0.140747 0.178604 0)
(-0.163623 0.152503 0)
(-0.181311 0.117586 0)
(-0.193848 0.0765307 0)
(-0.201362 0.0314932 0)
(-0.203858 -0.0156568 0)
(-0.201111 -0.0630454 0)
(-0.19265 -0.108483 0)
(-0.177858 -0.149161 0)
(-0.156224 -0.181405 0)
(-0.12778 -0.200596 0)
(-0.0936443 -0.201414 0)
(-0.0567331 -0.178565 0)
(-0.0234798 -0.128167 0)
(-0.00443553 -0.0501023 0)
(-0.00472546 0.0595688 0)
(-0.0236951 0.146611 0)
(-0.0553841 0.199747 0)
(-0.0893783 0.22278 0)
(-0.120125 0.221881 0)
(-0.145679 0.203178 0)
(-0.165635 0.171831 0)
(-0.180376 0.131804 0)
(-0.190586 0.0859658 0)
(-0.196868 0.0363754 0)
(-0.199507 -0.0153686 0)
(-0.19834 -0.0677382 0)
(-0.192721 -0.118859 0)
(-0.181577 -0.166069 0)
(-0.163648 -0.205478 0)
(-0.137968 -0.23165 0)
(-0.104597 -0.237615 0)
(-0.0657341 -0.215517 0)
(-0.0283779 -0.158362 0)
(-0.00568211 -0.06355 0)
(-0.00605172 0.0732263 0)
(-0.0282265 0.175558 0)
(-0.0625104 0.233563 0)
(-0.0962598 0.254737 0)
(-0.123861 0.248721 0)
(-0.144403 0.224017 0)
(-0.158677 0.187099 0)
(-0.168114 0.142456 0)
(-0.174209 0.0929651 0)
(-0.178126 0.040378 0)
(-0.180493 -0.0141968 0)
(-0.181273 -0.0698169 0)
(-0.179702 -0.125204 0)
(-0.174276 -0.178172 0)
(-0.162899 -0.224964 0)
(-0.143319 -0.259578 0)
(-0.11394 -0.27332 0)
(-0.0753942 -0.255059 0)
(-0.0345567 -0.193085 0)
(-0.00748635 -0.0801022 0)
(-0.00819223 0.0900447 0)
(-0.0344835 0.208016 0)
(-0.0704142 0.267877 0)
(-0.101027 0.283598 0)
(-0.121579 0.269802 0)
(-0.133114 0.237832 0)
(-0.13817 0.195397 0)
(-0.139471 0.147227 0)
(-0.139376 0.0959058 0)
(-0.139604 0.0426186 0)
(-0.141119 -0.0122316 0)
(-0.144064 -0.0685035 0)
(-0.147677 -0.125788 0)
(-0.150176 -0.182762 0)
(-0.148726 -0.236316 0)
(-0.139647 -0.280438 0)
(-0.119097 -0.305017 0)
(-0.0849374 -0.295152 0)
(-0.042441 -0.232372 0)
(-0.0102161 -0.100835 0)
(-0.0117677 0.111634 0)
(-0.0432605 0.243958 0)
(-0.0782992 0.300029 0)
(-0.100631 0.305086 0)
(-0.108356 0.280453 0)
(-0.105737 0.240376 0)
(-0.0975366 0.193275 0)
(-0.087779 0.143544 0)
(-0.0795098 0.0930329 0)
(-0.0747945 0.042094 0)
(-0.0748121 -0.00972777 0)
(-0.0798994 -0.0632083 0)
(-0.0894707 -0.118986 0)
(-0.101795 -0.176951 0)
(-0.113692 -0.235278 0)
(-0.120309 -0.288875 0)
(-0.115266 -0.327189 0)
(-0.092268 -0.331789 0)
(-0.0523163 -0.2754 0)
(-0.0144304 -0.127346 0)
(-0.0175494 0.140658 0)
(-0.0547652 0.282143 0)
(-0.082788 0.324715 0)
(-0.0880834 0.312469 0)
(-0.0751128 0.274451 0)
(-0.0525967 0.226765 0)
(-0.0274654 0.177284 0)
(-0.00452249 0.129132 0)
(0.0130902 0.0829105 0)
(0.023431 0.0379461 0)
(0.0253895 -0.00707281 0)
(0.0184989 -0.0537565 0)
(0.00297204 -0.103749 0)
(-0.0200036 -0.158316 0)
(-0.0476913 -0.217497 0)
(-0.0749888 -0.278356 0)
(-0.0935494 -0.331786 0)
(-0.0920652 -0.357679 0)
(-0.0632811 -0.319291 0)
(-0.0206337 -0.161973 0)
(-0.0254498 0.181711 0)
(-0.0657751 0.31777 0)
(-0.0733344 0.33136 0)
(-0.0480794 0.295398 0)
(-0.00558189 0.244208 0)
(0.0412136 0.192377 0)
(0.084647 0.145044 0)
(0.120529 0.102969 0)
(0.146694 0.0651363 0)
(0.162039 0.0298908 0)
(0.165933 -0.00467115 0)
(0.157928 -0.0406271 0)
(0.137725 -0.0802444 0)
(0.105434 -0.125915 0)
(0.062257 -0.179723 0)
(0.0118018 -0.242017 0)
(-0.0378326 -0.307875 0)
(-0.0716809 -0.36014 0)
(-0.0700561 -0.356606 0)
(-0.0279124 -0.208374 0)
(-0.029649 0.239176 0)
(-0.0608416 0.335767 0)
(-0.0219433 0.300502 0)
(0.0505402 0.240126 0)
(0.12757 0.182947 0)
(0.197004 0.135387 0)
(0.254332 0.0973973 0)
(0.298245 0.0668497 0)
(0.328818 0.0413544 0)
(0.34646 0.0187782 0)
(0.351369 -0.00279393 0)
(0.343296 -0.0252644 0)
(0.321462 -0.0507866 0)
(0.284637 -0.0820466 0)
(0.231567 -0.122444 0)
(0.162178 -0.175667 0)
(0.0798983 -0.24343 0)
(-0.00319115 -0.319135 0)
(-0.05467 -0.368611 0)
(-0.0284595 -0.267618 0)
(0.00808313 0.281861 0)
(0.019783 0.294972 0)
(0.139066 0.210972 0)
(0.264459 0.143476 0)
(0.364366 0.0971852 0)
(0.440361 0.0657767 0)
(0.496739 0.0442368 0)
(0.536869 0.0288854 0)
(0.563442 0.0171985 0)
(0.5783 0.00748467 0)
(0.582375 -0.00149401 0)
(0.57569 -0.0108449 0)
(0.557304 -0.0218466 0)
(0.525131 -0.0363343 0)
(0.475774 -0.0572589 0)
(0.404535 -0.0893834 0)
(0.305175 -0.13974 0)
(0.173416 -0.216386 0)
(0.0411717 -0.311655 0)
(0.0184302 -0.299995 0)
(0.299604 0.146091 0)
(0.396272 0.127503 0)
(0.55742 0.0760895 0)
(0.674487 0.0437231 0)
(0.743888 0.0255719 0)
(0.787152 0.015242 0)
(0.815484 0.0092122 0)
(0.833953 0.00550931 0)
(0.845383 0.00302712 0)
(0.851369 0.00114933 0)
(0.852664 -0.000499353 0)
(0.84938 -0.002215 0)
(0.840998 -0.00433846 0)
(0.826139 -0.00742396 0)
(0.802077 -0.0125321 0)
(0.76362 -0.0217727 0)
(0.699108 -0.0392828 0)
(0.583952 -0.07266 0)
(0.415827 -0.127868 0)
(0.308819 -0.149468 0)
)
;

boundaryField
{
    movingWall
    {
        type            fixedValue;
        value           uniform (1 0 0);
    }
    fixedWalls
    {
        type            fixedValue;
        value           uniform (0 0 0);
    }
    frontAndBack
    {
        type            empty;
    }
}


// ************************************************************************* //
