/*--------------------------------*- C++ -*----------------------------------*\
| RapidCFD by simFlow (sim-flow.com)                                          |
\*---------------------------------------------------------------------------*/
FoamFile
{
    version     2.0;
    format      ascii;
    class       volScalarField;
    location    "0.4";
    object      p;
}
// * * * * * * * * * * * * * * * * * * * * * * * * * * * * * * * * * * * * * //

dimensions      [0 2 -2 0 0 0 0];

internalField   nonuniform List<scalar> 
400
(
-1.06037e-06
-0.00583148
-0.0129697
-0.018422
-0.0204395
-0.0182458
-0.0117814
-0.00149149
0.0118292
0.0271406
0.0432355
0.0588138
0.0725692
0.0832989
0.0900431
0.0922574
0.0900165
0.0842349
0.076872
0.0710588
0.00577378
-0.0002256
-0.00581135
-0.00955
-0.0106065
-0.00844042
-0.00297777
0.00546607
0.0162945
0.0287031
0.041741
0.054377
0.0655773
0.0744008
0.0801111
0.0823067
0.0810684
0.0770462
0.0712658
0.0653098
0.0133268
0.00502567
-0.00100307
-0.00443094
-0.00528091
-0.00327204
0.00159414
0.00901927
0.0184936
0.0293408
0.0407568
0.0518609
0.0617597
0.0696276
0.0747983
0.0768695
0.0758332
0.0720776
0.0657975
0.0575279
0.0201306
0.0086876
0.0012178
-0.00267658
-0.00373021
-0.00189351
0.00272299
0.00977624
0.018772
0.0290866
0.0399835
0.0506455
0.0602244
0.0679074
0.0729948
0.0749932
0.0737576
0.0694481
0.0615952
0.0500952
0.024493
0.00976455
0.00058153
-0.00399503
-0.00531029
-0.00351547
0.00116654
0.00832636
0.0174538
0.0279408
0.0390767
0.0500616
0.0600406
0.0681569
0.0736182
0.0757896
0.0743609
0.0692819
0.0595181
0.0445301
0.0251689
0.0071415
-0.00381022
-0.00906521
-0.01052
-0.00850787
-0.0033647
0.00442154
0.0143054
0.025671
0.0378058
0.0498953
0.0610401
0.0702952
0.0767266
0.0795088
0.0781309
0.0723258
0.0605319
0.0418832
0.0210847
-0.000270751
-0.0129426
-0.0187172
-0.0200375
-0.0174215
-0.0113259
-0.00232722
0.00898287
0.0219686
0.035902
0.0499367
0.0631045
0.0743376
0.0825141
0.0865616
0.085713
0.0794395
0.0656132
0.043065
0.0111343
-0.0136263
-0.0278829
-0.0338619
-0.034611
-0.0308648
-0.0232201
-0.0123524
0.00109774
0.0164768
0.0330454
0.0499264
0.066076
0.0802825
0.0911932
0.0974225
0.0978628
0.0916287
0.0758892
0.0491097
-0.00597514
-0.0342742
-0.0498776
-0.0555559
-0.0550973
-0.0495216
-0.0396004
-0.0261201
-0.00976376
0.00881636
0.0288943
0.0495867
0.0697906
0.0881475
0.10304
0.112694
0.115543
0.110185
0.0928271
0.0614045
-0.0318645
-0.0638834
-0.0804241
-0.0850142
-0.082427
-0.0740851
-0.0609875
-0.044043
-0.0239578
-0.00134315
0.0231393
0.0486546
0.074089
0.0979655
0.118389
0.133119
0.139981
0.136811
0.118434
0.0819267
-0.0686741
-0.10461
-0.121351
-0.123597
-0.117522
-0.105133
-0.0877245
-0.0663316
-0.041643
-0.0141615
0.0155996
0.0469471
0.0788495
0.109787
0.137617
0.159579
0.17272
0.173771
0.155513
0.113564
-0.119408
-0.159363
-0.174921
-0.172764
-0.161154
-0.142935
-0.119765
-0.0927829
-0.0625832
-0.0294533
0.00636745
0.0444677
0.0840492
0.123697
0.16113
0.193079
0.215661
0.22407
0.208043
0.160625
-0.188634
-0.232248
-0.243945
-0.233954
-0.213701
-0.18716
-0.156378
-0.122507
-0.0859035
-0.0464776
-0.00401986
0.0415333
0.0898364
0.139823
0.189313
0.234683
0.271068
0.291657
0.281735
0.229768
-0.28398
-0.32931
-0.331838
-0.308286
-0.274715
-0.236446
-0.19577
-0.153616
-0.109845
-0.0637504
-0.014443
0.0388582
0.0965488
0.158271
0.222368
0.285282
0.341391
0.381568
0.384907
0.331826
-0.419323
-0.459676
-0.442356
-0.395798
-0.342135
-0.287745
-0.234621
-0.182935
-0.131614
-0.0789899
-0.0232189
0.0374703
0.104548
0.178832
0.259855
0.344964
0.42861
0.499693
0.529668
0.485383
-0.620536
-0.636749
-0.578683
-0.494199
-0.411246
-0.335664
-0.267786
-0.205983
-0.147541
-0.0893877
-0.0284307
0.0383435
0.113802
0.200466
0.299969
0.412019
0.533023
0.651768
0.732764
0.722388
-0.935929
-0.87852
-0.741747
-0.597954
-0.474399
-0.372665
-0.288874
-0.217768
-0.153958
-0.0924686
-0.0287219
0.0416911
0.123259
0.220713
0.33892
0.482149
0.65199
0.841335
1.01526
1.0975
-1.47643
-1.20664
-0.920509
-0.691394
-0.517311
-0.38755
-0.290067
-0.213343
-0.148129
-0.0872203
-0.0245823
0.0454529
0.128933
0.233066
0.367098
0.542672
0.771287
1.05931
1.40328
1.73013
-2.53965
-1.63055
-1.04444
-0.710965
-0.495757
-0.3521
-0.254537
-0.183589
-0.126175
-0.0736002
-0.0192738
0.0427822
0.119208
0.218778
0.354807
0.547978
0.826387
1.23657
1.91167
2.92419
-4.36667
-2.04464
-0.973549
-0.563188
-0.357854
-0.240154
-0.170126
-0.123789
-0.0874871
-0.0535155
-0.0166593
0.0276561
0.084603
0.161725
0.272406
0.442094
0.718213
1.2257
2.41103
4.84852
)
;

boundaryField
{
    movingWall
    {
        type            zeroGradient;
    }
    fixedWalls
    {
        type            zeroGradient;
    }
    frontAndBack
    {
        type            empty;
    }
}


// ************************************************************************* //
