/*--------------------------------*- C++ -*----------------------------------*\
| RapidCFD by simFlow (sim-flow.com)                                          |
\*---------------------------------------------------------------------------*/
FoamFile
{
    version     2.0;
    format      ascii;
    class       surfaceScalarField;
    location    "0.4";
    object      phi;
}
// * * * * * * * * * * * * * * * * * * * * * * * * * * * * * * * * * * * * * //

dimensions      [0 3 -1 0 0 0 0];

internalField   nonuniform List<scalar> 
760
(
1.42548e-08
-1.4245e-08
-2.21995e-08
3.64543e-08
-1.14265e-07
9.20647e-08
-2.45493e-07
1.31228e-07
-3.96101e-07
1.50607e-07
-5.47372e-07
1.5127e-07
-6.83198e-07
1.35826e-07
-7.90671e-07
1.07473e-07
-8.60216e-07
6.95441e-08
-8.8565e-07
2.54333e-08
-8.64328e-07
-2.13222e-08
-7.97396e-07
-6.6932e-08
-6.90091e-07
-1.07304e-07
-5.51977e-07
-1.38113e-07
-3.96947e-07
-1.5503e-07
-2.42751e-07
-1.54195e-07
-1.09734e-07
-1.33017e-07
-1.84163e-08
-9.13177e-08
1.56896e-08
-3.41061e-08
1.56895e-08
-3.42044e-08
1.99593e-08
-1.80367e-07
1.82616e-07
-4.3399e-07
3.45688e-07
-7.64445e-07
4.61683e-07
-1.13223e-06
5.18397e-07
-1.49728e-06
5.16313e-07
-1.82338e-06
4.61928e-07
-2.08058e-06
3.64677e-07
-2.24633e-06
2.35286e-07
-2.30609e-06
8.51985e-08
-2.25395e-06
-7.3464e-08
-2.0931e-06
-2.27788e-07
-1.8363e-06
-3.64099e-07
-1.50607e-06
-4.68341e-07
-1.1341e-06
-5.26999e-07
-7.59535e-07
-5.28764e-07
-4.25408e-07
-4.67145e-07
-1.72695e-07
-3.44031e-07
-3.08025e-08
-1.75999e-07
-1.51129e-08
-9.22253e-08
1.12184e-07
-3.56997e-07
4.47388e-07
-7.64567e-07
7.53259e-07
-1.26851e-06
9.65624e-07
-1.81473e-06
1.06462e-06
-2.34909e-06
1.05067e-06
-2.82249e-06
9.35326e-07
-3.19401e-06
7.36192e-07
-3.43268e-06
4.73958e-07
-3.51858e-06
1.71102e-07
-3.44364e-06
-1.48406e-07
-3.21232e-06
-4.5911e-07
-2.84216e-06
-7.34259e-07
-2.36385e-06
-9.46654e-07
-1.82035e-06
-1.0705e-06
-1.26451e-06
-1.0846e-06
-7.54534e-07
-9.77118e-07
-3.46976e-07
-7.51589e-07
-8.73371e-08
-4.35637e-07
-1.0245e-07
-1.45211e-07
2.57395e-07
-5.25466e-07
8.27643e-07
-1.08164e-06
1.30944e-06
-1.74753e-06
1.63151e-06
-2.45436e-06
1.77145e-06
-3.13642e-06
1.73273e-06
-3.73534e-06
1.53425e-06
-4.20297e-06
1.20382e-06
-4.50299e-06
7.73974e-07
-4.612e-06
2.80112e-07
-4.52032e-06
-2.40078e-07
-4.23279e-06
-7.46639e-07
-3.76942e-06
-1.19764e-06
-3.16568e-06
-1.55039e-06
-2.47191e-06
-1.76427e-06
-1.75109e-06
-1.80542e-06
-1.07452e-06
-1.65369e-06
-5.15145e-07
-1.31097e-06
-1.39317e-07
-8.11465e-07
-2.41768e-07
-1.93611e-07
4.51006e-07
-6.85006e-07
1.31904e-06
-1.38563e-06
2.01007e-06
-2.20726e-06
2.45314e-06
-3.0655e-06
2.62969e-06
-3.88382e-06
2.55105e-06
-4.59655e-06
2.24698e-06
-5.15063e-06
1.7579e-06
-5.5065e-06
1.12984e-06
-5.63858e-06
4.12189e-07
-5.53581e-06
-3.42849e-07
-5.20242e-06
-1.08003e-06
-4.65892e-06
-1.74113e-06
-3.94299e-06
-2.26633e-06
-3.10973e-06
-2.59753e-06
-2.23052e-06
-2.68463e-06
-1.38965e-06
-2.49455e-06
-6.78504e-07
-2.02211e-06
-1.87769e-07
-1.3022e-06
-4.29537e-07
-2.39942e-07
6.90949e-07
-8.40355e-07
1.91945e-06
-1.6833e-06
2.85301e-06
-2.65708e-06
3.42692e-06
-3.66086e-06
3.63347e-06
-4.6078e-06
3.49799e-06
-5.4264e-06
3.06558e-06
-6.06062e-06
2.39212e-06
-6.46941e-06
1.53863e-06
-6.62611e-06
5.68886e-07
-6.51837e-06
-4.50583e-07
-6.14885e-06
-1.44955e-06
-5.53658e-06
-2.3534e-06
-4.71896e-06
-3.08395e-06
-3.75349e-06
-3.563e-06
-2.71849e-06
-3.71962e-06
-1.71155e-06
-3.5015e-06
-8.44667e-07
-2.88899e-06
-2.36181e-07
-1.91069e-06
-6.65718e-07
-2.86747e-07
9.77697e-07
-9.97093e-07
2.6298e-06
-1.9821e-06
3.83801e-06
-3.10497e-06
4.54979e-06
-4.24798e-06
4.77649e-06
-5.31486e-06
4.56486e-06
-6.23016e-06
3.98088e-06
-6.93722e-06
3.09919e-06
-7.39554e-06
1.99695e-06
-7.57868e-06
7.52022e-07
-7.47322e-06
-5.56045e-07
-7.07916e-06
-1.8436e-06
-6.41193e-06
-3.02063e-06
-5.50562e-06
-3.99026e-06
-4.41709e-06
-4.65153e-06
-3.22939e-06
-4.90732e-06
-2.05297e-06
-4.67793e-06
-1.02254e-06
-3.91942e-06
-2.88283e-07
-2.64495e-06
-9.54001e-07
-3.36333e-07
1.31403e-06
-1.16038e-06
3.45384e-06
-2.28803e-06
4.96567e-06
-3.55502e-06
5.81677e-06
-4.82665e-06
6.04813e-06
-5.9991e-06
5.73731e-06
-6.99607e-06
4.97785e-06
-7.76356e-06
3.86668e-06
-8.26453e-06
2.49792e-06
-8.47466e-06
9.62152e-07
-8.38001e-06
-6.50697e-07
-7.97694e-06
-2.24667e-06
-7.27462e-06
-3.72296e-06
-6.29999e-06
-4.96488e-06
-5.1047e-06
-5.84682e-06
-3.77255e-06
-6.23947e-06
-2.4249e-06
-6.02558e-06
-1.22075e-06
-5.12356e-06
-3.47709e-07
-3.51799e-06
-1.30171e-06
-3.90959e-07
1.70499e-06
-1.33489e-06
4.39778e-06
-2.60499e-06
6.23576e-06
-4.00596e-06
7.21775e-06
-5.38683e-06
7.429e-06
-6.63978e-06
6.99025e-06
-7.69246e-06
6.03054e-06
-8.4985e-06
4.67271e-06
-9.02845e-06
3.02787e-06
-9.26295e-06
1.19666e-06
-9.18868e-06
-7.2497e-07
-8.79751e-06
-2.63784e-06
-8.0894e-06
-4.43107e-06
-7.07905e-06
-5.97523e-06
-5.80635e-06
-7.11952e-06
-4.34906e-06
-7.69676e-06
-2.83482e-06
-7.53982e-06
-1.4471e-06
-6.51129e-06
-4.181e-07
-4.54699e-06
-1.71981e-06
-4.53454e-07
2.15844e-06
-1.52569e-06
5.47001e-06
-2.93489e-06
7.64497e-06
-4.45012e-06
8.73299e-06
-5.90634e-06
8.88522e-06
-7.19783e-06
8.28174e-06
-8.26369e-06
7.09639e-06
-9.0721e-06
5.48113e-06
-9.60691e-06
3.56268e-06
-9.85763e-06
1.44738e-06
-9.81346e-06
-7.69141e-07
-9.46141e-06
-2.98988e-06
-8.78914e-06
-5.10335e-06
-7.79303e-06
-6.97134e-06
-6.49223e-06
-8.42032e-06
-4.94798e-06
-9.241e-06
-3.28512e-06
-9.20268e-06
-1.70868e-06
-8.08773e-06
-5.03588e-07
-5.75208e-06
-2.2234e-06
-5.28335e-07
2.68678e-06
-1.73966e-06
6.68133e-06
-3.27797e-06
9.18328e-06
-4.87162e-06
1.03266e-05
-6.347e-06
1.03606e-05
-7.61081e-06
9.54556e-06
-8.62435e-06
8.10992e-06
-9.37968e-06
6.23646e-06
-9.88098e-06
4.06398e-06
-1.01315e-05
1.69793e-06
-1.01258e-05
-7.74889e-07
-9.84633e-06
-3.26933e-06
-9.26598e-06
-5.68369e-06
-8.35633e-06
-7.881e-06
-7.10469e-06
-9.67195e-06
-5.5407e-06
-1.0805e-05
-3.7707e-06
-1.09727e-05
-2.01217e-06
-9.84627e-06
-6.09688e-07
-7.15456e-06
-2.83309e-06
-6.23663e-07
3.31044e-06
-1.98737e-06
8.04504e-06
-3.63189e-06
1.08278e-05
-5.24191e-06
1.19366e-05
-6.64755e-06
1.17662e-05
-7.78445e-06
1.06825e-05
-8.65098e-06
8.97646e-06
-9.27427e-06
6.85975e-06
-9.68651e-06
4.47621e-06
-9.90979e-06
1.92121e-06
-9.94721e-06
-7.37469e-07
-9.77856e-06
-3.43797e-06
-9.36087e-06
-6.10139e-06
-8.6356e-06
-8.60627e-06
-7.54637e-06
-1.07612e-05
-6.07157e-06
-1.22798e-05
-4.27426e-06
-1.277e-05
-2.36364e-06
-1.17569e-05
-7.44776e-07
-8.77343e-06
-3.57786e-06
-7.54072e-07
4.06451e-06
-2.28434e-06
9.5753e-06
-3.98699e-06
1.25304e-05
-5.50906e-06
1.34587e-05
-6.70957e-06
1.29667e-05
-7.57852e-06
1.15514e-05
-8.17001e-06
9.56795e-06
-8.55758e-06
7.24732e-06
-8.80769e-06
4.72631e-06
-8.96501e-06
2.07853e-06
-9.04433e-06
-6.58149e-07
-9.02572e-06
-3.45659e-06
-8.85257e-06
-6.27453e-06
-8.4348e-06
-9.02403e-06
-7.66289e-06
-1.15331e-05
-6.44199e-06
-1.35007e-05
-4.75625e-06
-1.44557e-05
-2.76674e-06
-1.37464e-05
-9.22433e-07
-1.06177e-05
-4.5003e-06
-9.45201e-07
5.00971e-06
-2.64848e-06
1.12786e-05
-4.31096e-06
1.41929e-05
-5.57325e-06
1.4721e-05
-6.37063e-06
1.37641e-05
-6.78321e-06
1.1964e-05
-6.94041e-06
9.72516e-06
-6.96963e-06
7.27654e-06
-6.97267e-06
4.72935e-06
-7.01639e-06
2.12225e-06
-7.12849e-06
-5.46044e-07
-7.29366e-06
-3.29142e-06
-7.44855e-06
-6.11964e-06
-7.47781e-06
-8.99477e-06
-7.21788e-06
-1.1793e-05
-6.48271e-06
-1.42359e-05
-5.13341e-06
-1.5805e-05
-3.21497e-06
-1.56648e-05
-1.16438e-06
-1.26683e-05
-5.66468e-06
-1.23731e-06
6.24702e-06
-3.08327e-06
1.31245e-05
-4.50767e-06
1.56173e-05
-5.23443e-06
1.54478e-05
-5.35514e-06
1.38848e-05
-5.08174e-06
1.16906e-05
-4.63078e-06
9.2742e-06
-4.17913e-06
6.82489e-06
-3.85422e-06
4.40444e-06
-3.73688e-06
2.00491e-06
-3.86499e-06
-4.17935e-07
-4.23251e-06
-2.9239e-06
-4.78197e-06
-5.57019e-06
-5.39097e-06
-8.38576e-06
-5.85842e-06
-1.13256e-05
-5.90652e-06
-1.41878e-05
-5.23279e-06
-1.64788e-05
-3.66625e-06
-1.72314e-05
-1.50008e-06
-1.48345e-05
-7.16475e-06
-1.6738e-06
7.92082e-06
-3.51335e-06
1.49641e-05
-4.31527e-06
1.64192e-05
-4.08882e-06
1.52213e-05
-3.19297e-06
1.2989e-05
-1.99864e-06
1.04962e-05
-7.95029e-07
8.07059e-06
2.19464e-07
5.8104e-06
9.18369e-07
3.70554e-06
1.22574e-06
1.69754e-06
1.1022e-06
-2.9439e-07
5.41188e-07
-2.36289e-06
-4.22817e-07
-4.60618e-06
-1.69247e-06
-7.11611e-06
-3.07234e-06
-9.94571e-06
-4.23077e-06
-1.30293e-05
-4.69562e-06
-1.60139e-05
-3.96717e-06
-1.79598e-05
-1.94492e-06
-1.68568e-05
-9.10967e-06
-2.23069e-06
1.01515e-05
-3.59028e-06
1.63237e-05
-3.07775e-06
1.59067e-05
-1.34383e-06
1.34874e-05
8.97097e-07
1.07481e-05
3.15505e-06
8.2383e-06
5.13821e-06
6.08743e-06
6.6888e-06
4.25981e-06
7.72595e-06
2.66839e-06
8.20667e-06
1.21682e-06
8.10401e-06
-1.91723e-07
7.39914e-06
-1.65803e-06
6.08696e-06
-3.29399e-06
4.19927e-06
-5.22842e-06
1.85422e-06
-7.60066e-06
-6.6167e-07
-1.05134e-05
-2.79215e-06
-1.38834e-05
-3.66208e-06
-1.70899e-05
-2.41154e-06
-1.81073e-05
-1.15212e-05
-2.57381e-06
1.27253e-05
-2.18345e-06
1.59333e-05
7.18085e-07
1.30052e-05
4.46959e-06
9.73589e-06
8.13333e-06
7.08432e-06
1.13016e-05
5.07e-06
1.38292e-05
3.55989e-06
1.56882e-05
2.40079e-06
1.68918e-05
1.4648e-06
1.7455e-05
6.53605e-07
1.73764e-05
-1.13203e-07
1.66306e-05
-9.12159e-07
1.51672e-05
-1.83067e-06
1.29236e-05
-2.98474e-06
9.8618e-06
-4.53889e-06
6.062e-06
-6.71364e-06
1.91236e-06
-9.73381e-06
-1.55962e-06
-1.36179e-05
-2.45834e-06
-1.72086e-05
-1.39795e-05
-7.85014e-07
1.35103e-05
4.08079e-06
1.10675e-05
1.02976e-05
6.78843e-06
1.57936e-05
4.2398e-06
2.01581e-05
2.71991e-06
2.34581e-05
1.76995e-06
2.58609e-05
1.15714e-06
2.75216e-05
7.40055e-07
2.85541e-05
4.32294e-07
2.90265e-05
1.81221e-07
2.89623e-05
-4.89824e-08
2.83388e-05
-2.88701e-07
2.70819e-05
-5.73742e-07
2.50551e-05
-9.57958e-07
2.20517e-05
-1.53552e-06
1.78155e-05
-2.47742e-06
1.21724e-05
-4.09068e-06
5.47773e-06
-6.92324e-06
-1.29168e-07
-1.16017e-05
-1.41087e-05
1.35103e-05
2.45778e-05
3.13663e-05
3.56061e-05
3.8326e-05
4.00959e-05
4.12531e-05
4.19931e-05
4.24254e-05
4.26067e-05
4.25577e-05
4.2269e-05
4.16952e-05
4.07373e-05
3.92017e-05
3.67243e-05
3.26336e-05
2.57104e-05
1.41087e-05
)
;

boundaryField
{
    movingWall
    {
        type            calculated;
        value           uniform 0;
    }
    fixedWalls
    {
        type            calculated;
        value           uniform 0;
    }
    frontAndBack
    {
        type            empty;
        value           nonuniform 0();
    }
}


// ************************************************************************* //
