/*--------------------------------*- C++ -*----------------------------------*\
| RapidCFD by simFlow (sim-flow.com)                                          |
\*---------------------------------------------------------------------------*/
FoamFile
{
    version     2.0;
    format      ascii;
    class       volVectorField;
    location    "0.4";
    object      U;
}
// * * * * * * * * * * * * * * * * * * * * * * * * * * * * * * * * * * * * * //

dimensions      [0 1 -1 0 0 0 0];

internalField   nonuniform List<vector> 
400
(
(0.00025364 -0.000250201 0)
(0.000141575 0.000111564 0)
(-0.00117681 0.000564659 0)
(-0.00348105 0.000885005 0)
(-0.00637749 0.00104572 0)
(-0.00946955 0.00106175 0)
(-0.0124031 0.000957848 0)
(-0.0148851 0.000760438 0)
(-0.0166897 0.000494645 0)
(-0.0176586 0.000184561 0)
(-0.0177024 -0.00014527 0)
(-0.0168054 -0.000468371 0)
(-0.0150303 -0.00075542 0)
(-0.0125253 -0.000974272 0)
(-0.00952654 -0.0010912 0)
(-0.00635507 -0.00107402 0)
(-0.00340068 -0.000898128 0)
(-0.00108643 -0.000556393 0)
(0.000196433 -9.03649e-05 0)
(0.000267865 0.000262389 0)
(-7.73236e-05 -0.000169016 0)
(-0.00161132 0.0016451 0)
(-0.0056928 0.00361749 0)
(-0.0117189 0.00503498 0)
(-0.0188926 0.00574337 0)
(-0.0264014 0.00576034 0)
(-0.03347 0.00517179 0)
(-0.0394279 0.00409261 0)
(-0.0437452 0.0026477 0)
(-0.0460485 0.000966946 0)
(-0.0461308 -0.000813246 0)
(-0.0439626 -0.00254714 0)
(-0.0397023 -0.00407874 0)
(-0.0337037 -0.00524524 0)
(-0.0265141 -0.00588671 0)
(-0.0188551 -0.005865 0)
(-0.011567 -0.00509488 0)
(-0.00551342 -0.0035895 0)
(-0.00149311 -0.00155916 0)
(-4.25768e-05 0.000227467 0)
(-0.000528558 0.00109181 0)
(-0.00371135 0.00573661 0)
(-0.0105891 0.0102249 0)
(-0.0199922 0.0134081 0)
(-0.0307657 0.0149467 0)
(-0.0418235 0.0148392 0)
(-0.0521215 0.0132561 0)
(-0.0607462 0.0104565 0)
(-0.0669718 0.00674217 0)
(-0.0702851 0.00243892 0)
(-0.0704031 -0.00210662 0)
(-0.0672867 -0.00652566 0)
(-0.0611545 -0.0104295 0)
(-0.0524902 -0.0134215 0)
(-0.0420384 -0.0151239 0)
(-0.0307749 -0.015226 0)
(-0.0198297 -0.0135564 0)
(-0.0103639 -0.0101792 0)
(-0.00354861 -0.0055512 0)
(-0.000476854 -0.000948844 0)
(-0.000928222 0.00348 0)
(-0.00569159 0.0122211 0)
(-0.0153022 0.0199224 0)
(-0.0279177 0.0251986 0)
(-0.0419868 0.0275978 0)
(-0.0561809 0.0271383 0)
(-0.0692544 0.0241096 0)
(-0.0801285 0.0189544 0)
(-0.0879513 0.0121959 0)
(-0.0921221 0.00440517 0)
(-0.0923067 -0.00380812 0)
(-0.0884532 -0.0117969 0)
(-0.0808077 -0.0188827 0)
(-0.0699253 -0.024377 0)
(-0.0566711 -0.0276284 0)
(-0.0421962 -0.0281025 0)
(-0.0278574 -0.0254983 0)
(-0.0150941 -0.0198922 0)
(-0.00550519 -0.011928 0)
(-0.00086162 -0.00322493 0)
(-0.00127895 0.00687802 0)
(-0.00753622 0.0209543 0)
(-0.0198054 0.0325113 0)
(-0.0355359 0.0401043 0)
(-0.0527451 0.0432914 0)
(-0.0698608 0.0421939 0)
(-0.0854662 0.0372785 0)
(-0.0983639 0.0292138 0)
(-0.107623 0.0187777 0)
(-0.112592 0.00681384 0)
(-0.112901 -0.0057806 0)
(-0.108478 -0.0180552 0)
(-0.0995654 -0.0290122 0)
(-0.0867419 -0.0376337 0)
(-0.0709379 -0.042946 0)
(-0.0534319 -0.0441299 0)
(-0.0357856 -0.0406796 0)
(-0.0197357 -0.0325932 0)
(-0.00737078 -0.020591 0)
(-0.0012037 -0.00649828 0)
(-0.00160755 0.0112159 0)
(-0.00931823 0.0318753 0)
(-0.0242098 0.0479529 0)
(-0.0430037 0.0580732 0)
(-0.0632586 0.0619384 0)
(-0.083155 0.0598823 0)
(-0.101127 0.0526293 0)
(-0.115895 0.0411266 0)
(-0.126491 0.0264375 0)
(-0.132241 0.00969299 0)
(-0.132753 -0.00791657 0)
(-0.127926 -0.0251327 0)
(-0.117969 -0.0406258 0)
(-0.103436 -0.0530203 0)
(-0.0852707 -0.0609673 0)
(-0.0648368 -0.0632811 0)
(-0.0438863 -0.0591429 0)
(-0.0244781 -0.048345 0)
(-0.00925447 -0.031558 0)
(-0.00153777 -0.0107287 0)
(-0.00194007 0.0164774 0)
(-0.0111214 0.0449749 0)
(-0.0286507 0.0662343 0)
(-0.0504804 0.0790604 0)
(-0.0736859 0.0834473 0)
(-0.096205 0.0800751 0)
(-0.116353 0.0700252 0)
(-0.132816 0.0545854 0)
(-0.144633 0.035132 0)
(-0.151143 0.0130847 0)
(-0.151951 -0.0100867 0)
(-0.146917 -0.0328331 0)
(-0.136183 -0.0535003 0)
(-0.120224 -0.0703376 0)
(-0.0999336 -0.0815661 0)
(-0.0767021 -0.0855335 0)
(-0.0524406 -0.0809644 0)
(-0.0295451 -0.0672776 0)
(-0.0112837 -0.0449399 0)
(-0.00190009 -0.0159517 0)
(-0.00230004 0.0226952 0)
(-0.0130251 0.0603013 0)
(-0.0332509 0.0873642 0)
(-0.0580799 0.102997 0)
(-0.0840749 0.107666 0)
(-0.108954 0.102562 0)
(-0.130968 0.0892446 0)
(-0.148835 0.0694112 0)
(-0.161667 0.0447718 0)
(-0.168868 0.0170198 0)
(-0.170063 -0.0121337 0)
(-0.165072 -0.0408936 0)
(-0.15393 -0.0673148 0)
(-0.13697 -0.0892737 0)
(-0.114943 -0.104512 0)
(-0.089176 -0.110797 0)
(-0.0616707 -0.106213 0)
(-0.0351484 -0.0895798 0)
(-0.0135858 -0.0609497 0)
(-0.00232633 -0.0222777 0)
(-0.00271164 0.0299471 0)
(-0.015108 0.0779567 0)
(-0.0381146 0.111356 0)
(-0.0658482 0.12975 0)
(-0.0943265 0.134317 0)
(-0.121099 0.126974 0)
(-0.144443 0.109902 0)
(-0.163213 0.0852817 0)
(-0.176687 0.0551671 0)
(-0.184406 0.0214869 0)
(-0.186057 -0.0138748 0)
(-0.181421 -0.0489567 0)
(-0.170394 -0.0815935 0)
(-0.15308 -0.109324 0)
(-0.129971 -0.129381 0)
(-0.102186 -0.138828 0)
(-0.0716893 -0.134887 0)
(-0.0414668 -0.115469 0)
(-0.016288 -0.0798954 0)
(-0.00285468 -0.0298896 0)
(-0.00320765 0.0383595 0)
(-0.0174661 0.0980891 0)
(-0.0433409 0.138189 0)
(-0.0737564 0.159045 0)
(-0.10416 0.1629 0)
(-0.132031 0.152672 0)
(-0.155825 0.131341 0)
(-0.174678 0.10164 0)
(-0.188167 0.0659575 0)
(-0.196067 0.0263895 0)
(-0.198186 -0.0151127 0)
(-0.194283 -0.0565453 0)
(-0.184081 -0.0956418 0)
(-0.167366 -0.129689 0)
(-0.144215 -0.155423 0)
(-0.115338 -0.169097 0)
(-0.0824456 -0.166802 0)
(-0.048636 -0.145124 0)
(-0.0195287 -0.10216 0)
(-0.00353355 -0.0390472 0)
(-0.00384395 0.0481285 0)
(-0.0202462 0.120893 0)
(-0.0490465 0.167751 0)
(-0.0816863 0.190365 0)
(-0.113053 0.192557 0)
(-0.140746 0.178614 0)
(-0.163622 0.152512 0)
(-0.181309 0.117592 0)
(-0.193846 0.0765348 0)
(-0.201361 0.0314943 0)
(-0.203857 -0.0156587 0)
(-0.20111 -0.0630502 0)
(-0.192649 -0.108491 0)
(-0.177857 -0.14917 0)
(-0.156224 -0.181415 0)
(-0.127779 -0.200606 0)
(-0.0936441 -0.201424 0)
(-0.056733 -0.178573 0)
(-0.0234798 -0.128172 0)
(-0.00443553 -0.0501043 0)
(-0.00472537 0.0595709 0)
(-0.0236947 0.146617 0)
(-0.055383 0.199755 0)
(-0.0893765 0.22279 0)
(-0.120122 0.221891 0)
(-0.145676 0.203187 0)
(-0.165631 0.17184 0)
(-0.180371 0.13181 0)
(-0.190582 0.0859698 0)
(-0.196864 0.0363765 0)
(-0.199502 -0.0153704 0)
(-0.198336 -0.0677427 0)
(-0.192718 -0.118866 0)
(-0.181574 -0.166078 0)
(-0.163645 -0.205488 0)
(-0.137967 -0.23166 0)
(-0.104596 -0.237624 0)
(-0.0657335 -0.215524 0)
(-0.0283777 -0.158367 0)
(-0.00568208 -0.063552 0)
(-0.00605159 0.0732281 0)
(-0.0282259 0.175563 0)
(-0.0625088 0.23357 0)
(-0.0962571 0.254746 0)
(-0.123857 0.248731 0)
(-0.144398 0.224026 0)
(-0.158671 0.187107 0)
(-0.168107 0.142462 0)
(-0.174202 0.0929688 0)
(-0.178119 0.0403792 0)
(-0.180485 -0.0141983 0)
(-0.181266 -0.0698209 0)
(-0.179696 -0.12521 0)
(-0.174271 -0.17818 0)
(-0.162895 -0.224972 0)
(-0.143317 -0.259587 0)
(-0.113938 -0.273328 0)
(-0.0753931 -0.255066 0)
(-0.0345563 -0.19309 0)
(-0.00748629 -0.080104 0)
(-0.00819207 0.090046 0)
(-0.0344827 0.20802 0)
(-0.0704123 0.267883 0)
(-0.101023 0.283606 0)
(-0.121574 0.26981 0)
(-0.133108 0.23784 0)
(-0.138163 0.195404 0)
(-0.139462 0.147233 0)
(-0.139367 0.0959091 0)
(-0.139595 0.0426196 0)
(-0.141109 -0.0122328 0)
(-0.144055 -0.0685069 0)
(-0.147669 -0.125794 0)
(-0.15017 -0.182769 0)
(-0.14872 -0.236324 0)
(-0.139644 -0.280446 0)
(-0.119095 -0.305025 0)
(-0.084936 -0.295158 0)
(-0.0424405 -0.232377 0)
(-0.010216 -0.100837 0)
(-0.0117675 0.111635 0)
(-0.0432597 0.243961 0)
(-0.0782972 0.300033 0)
(-0.100628 0.305092 0)
(-0.108351 0.28046 0)
(-0.10573 0.240382 0)
(-0.0975285 0.193281 0)
(-0.0877698 0.143549 0)
(-0.0794998 0.0930357 0)
(-0.0747841 0.042095 0)
(-0.0748018 -0.00972868 0)
(-0.0798896 -0.063211 0)
(-0.0894619 -0.11899 0)
(-0.101788 -0.176957 0)
(-0.113686 -0.235284 0)
(-0.120305 -0.288881 0)
(-0.115263 -0.327195 0)
(-0.0922663 -0.331794 0)
(-0.0523156 -0.275403 0)
(-0.0144303 -0.127347 0)
(-0.0175493 0.140659 0)
(-0.0547645 0.282145 0)
(-0.0827861 0.324718 0)
(-0.0880801 0.312473 0)
(-0.0751079 0.274456 0)
(-0.0525901 0.22677 0)
(-0.0274574 0.177288 0)
(-0.00451327 0.129135 0)
(0.0131002 0.0829127 0)
(0.0234415 0.0379469 0)
(0.0254 -0.00707345 0)
(0.0185089 -0.0537584 0)
(0.00298113 -0.103752 0)
(-0.0199958 -0.15832 0)
(-0.0476849 -0.217502 0)
(-0.0749841 -0.27836 0)
(-0.0935462 -0.331791 0)
(-0.0920635 -0.357682 0)
(-0.0632804 -0.319294 0)
(-0.0206336 -0.161974 0)
(-0.0254497 0.181711 0)
(-0.0657745 0.317771 0)
(-0.0733329 0.331362 0)
(-0.0480767 0.2954 0)
(-0.00557768 0.244212 0)
(0.0412193 0.19238 0)
(0.0846541 0.145047 0)
(0.120538 0.102972 0)
(0.146703 0.0651378 0)
(0.162049 0.0298914 0)
(0.165943 -0.00467156 0)
(0.157937 -0.0406284 0)
(0.137733 -0.0802465 0)
(0.105441 -0.125918 0)
(0.0622629 -0.179726 0)
(0.0118063 -0.24202 0)
(-0.0378296 -0.307877 0)
(-0.0716792 -0.360143 0)
(-0.0700555 -0.356608 0)
(-0.0279123 -0.208375 0)
(-0.029649 0.239176 0)
(-0.0608413 0.335767 0)
(-0.0219423 0.300503 0)
(0.0505421 0.240127 0)
(0.127573 0.182949 0)
(0.197008 0.135389 0)
(0.254337 0.097399 0)
(0.298251 0.0668511 0)
(0.328825 0.0413553 0)
(0.346468 0.0187786 0)
(0.351377 -0.00279417 0)
(0.343303 -0.0252652 0)
(0.321469 -0.0507877 0)
(0.284643 -0.0820481 0)
(0.231572 -0.122446 0)
(0.162181 -0.175669 0)
(0.0799007 -0.243431 0)
(-0.00318984 -0.319136 0)
(-0.0546696 -0.368612 0)
(-0.0284594 -0.267618 0)
(0.0080831 0.281861 0)
(0.019783 0.294972 0)
(0.139066 0.210973 0)
(0.26446 0.143477 0)
(0.364368 0.0971859 0)
(0.440364 0.0657774 0)
(0.496743 0.0442374 0)
(0.536874 0.028886 0)
(0.563447 0.0171989 0)
(0.578306 0.00748477 0)
(0.58238 -0.00149413 0)
(0.575695 -0.0108452 0)
(0.557309 -0.021847 0)
(0.525135 -0.0363349 0)
(0.475777 -0.0572595 0)
(0.404537 -0.089384 0)
(0.305176 -0.139741 0)
(0.173417 -0.216386 0)
(0.041172 -0.311655 0)
(0.0184302 -0.299995 0)
(0.299604 0.146091 0)
(0.396272 0.127503 0)
(0.55742 0.0760895 0)
(0.674487 0.0437232 0)
(0.743888 0.0255721 0)
(0.787153 0.0152422 0)
(0.815485 0.00921232 0)
(0.833955 0.0055094 0)
(0.845385 0.00302717 0)
(0.851371 0.00114934 0)
(0.852666 -0.000499385 0)
(0.849382 -0.00221506 0)
(0.840999 -0.00433855 0)
(0.82614 -0.00742406 0)
(0.802078 -0.0125322 0)
(0.763621 -0.0217728 0)
(0.699108 -0.0392829 0)
(0.583952 -0.0726601 0)
(0.415827 -0.127868 0)
(0.308819 -0.149468 0)
)
;

boundaryField
{
    movingWall
    {
        type            fixedValue;
        value           uniform (1 0 0);
    }
    fixedWalls
    {
        type            fixedValue;
        value           uniform (0 0 0);
    }
    frontAndBack
    {
        type            empty;
    }
}


// ************************************************************************* //
