/*--------------------------------*- C++ -*----------------------------------*\
| RapidCFD by simFlow (sim-flow.com)                                          |
\*---------------------------------------------------------------------------*/
FoamFile
{
    version     2.0;
    format      ascii;
    class       volScalarField;
    location    "0.5";
    object      p;
}
// * * * * * * * * * * * * * * * * * * * * * * * * * * * * * * * * * * * * * //

dimensions      [0 2 -2 0 0 0 0];

internalField   nonuniform List<scalar> 
400
(
-7.50044e-07
-0.00583119
-0.0129697
-0.018422
-0.0204396
-0.018246
-0.0117815
-0.00149142
0.0118296
0.0271413
0.0432365
0.058815
0.0725706
0.0833004
0.0900447
0.0922589
0.0900179
0.084236
0.0768729
0.0710594
0.00577462
-0.000225
-0.00581098
-0.00954971
-0.0106063
-0.00844019
-0.00297753
0.00546643
0.0162951
0.0287038
0.0417418
0.0543779
0.0655784
0.0744019
0.0801123
0.0823078
0.0810694
0.077047
0.0712664
0.0653102
0.0133279
0.00502648
-0.00100253
-0.00443046
-0.00528042
-0.00327154
0.00159464
0.00901977
0.0184941
0.0293413
0.0407574
0.0518617
0.0617606
0.0696285
0.0747991
0.0768702
0.0758338
0.0720782
0.0657979
0.0575279
0.020132
0.00868853
0.00121843
-0.00267604
-0.0037297
-0.00189299
0.00272349
0.00977668
0.0187724
0.0290871
0.039984
0.0506461
0.060225
0.0679081
0.0729954
0.0749937
0.0737581
0.0694484
0.0615954
0.050095
0.0244944
0.00976553
0.000582226
-0.00399446
-0.00530981
-0.00351502
0.00116692
0.00832666
0.017454
0.0279411
0.0390771
0.050062
0.060041
0.0681572
0.0736185
0.0757899
0.0743612
0.0692821
0.059518
0.0445296
0.0251702
0.00714239
-0.00380957
-0.0090647
-0.0105197
-0.0085076
-0.00336453
0.00442164
0.0143055
0.0256711
0.0378059
0.0498954
0.0610403
0.0702953
0.0767268
0.0795091
0.0781312
0.0723259
0.0605318
0.0418826
0.0210858
-0.000269995
-0.012942
-0.0187168
-0.0200373
-0.0174214
-0.0113259
-0.00232731
0.00898273
0.0219684
0.0359019
0.0499366
0.0631044
0.0743375
0.0825141
0.0865617
0.085713
0.0794395
0.0656129
0.0430643
0.0111352
-0.0136258
-0.0278825
-0.0338617
-0.0346109
-0.0308648
-0.0232202
-0.0123526
0.00109734
0.0164763
0.0330449
0.049926
0.0660757
0.0802822
0.091193
0.0974224
0.0978627
0.0916285
0.0758889
0.0491092
-0.00597462
-0.0342739
-0.0498774
-0.0555559
-0.0550974
-0.0495218
-0.0396007
-0.0261206
-0.00976439
0.00881566
0.0288936
0.049586
0.06979
0.088147
0.10304
0.112694
0.115543
0.110184
0.0928269
0.0614041
-0.0318644
-0.0638834
-0.0804242
-0.0850144
-0.0824273
-0.0740855
-0.060988
-0.0440437
-0.0239586
-0.00134403
0.0231384
0.0486538
0.0740883
0.0979649
0.118389
0.133118
0.139981
0.136811
0.118433
0.0819265
-0.0686744
-0.10461
-0.121352
-0.123597
-0.117523
-0.105134
-0.0877253
-0.0663325
-0.041644
-0.0141626
0.0155986
0.0469462
0.0788487
0.109786
0.137617
0.159578
0.17272
0.173771
0.155513
0.113563
-0.119409
-0.159364
-0.174922
-0.172764
-0.161155
-0.142936
-0.119766
-0.0927838
-0.0625842
-0.0294544
0.00636635
0.0444667
0.0840483
0.123696
0.161129
0.193079
0.215661
0.22407
0.208043
0.160625
-0.188635
-0.232248
-0.243945
-0.233955
-0.213701
-0.187161
-0.156379
-0.122508
-0.0859045
-0.0464787
-0.00402098
0.0415323
0.0898355
0.139823
0.189312
0.234682
0.271068
0.291657
0.281736
0.229769
-0.283981
-0.329311
-0.331838
-0.308286
-0.274715
-0.236446
-0.195771
-0.153616
-0.109846
-0.0637514
-0.0144441
0.0388572
0.096548
0.15827
0.222368
0.285281
0.34139
0.381568
0.384907
0.331827
-0.419324
-0.459677
-0.442356
-0.395798
-0.342135
-0.287745
-0.234622
-0.182936
-0.131615
-0.0789907
-0.0232198
0.0374695
0.104547
0.178832
0.259855
0.344964
0.42861
0.499694
0.529668
0.485385
-0.620537
-0.636749
-0.578683
-0.494199
-0.411246
-0.335664
-0.267786
-0.205983
-0.147542
-0.0893882
-0.0284313
0.038343
0.113801
0.200466
0.299969
0.412019
0.533024
0.651769
0.732765
0.722389
-0.935929
-0.87852
-0.741747
-0.597954
-0.474398
-0.372664
-0.288874
-0.217768
-0.153958
-0.0924689
-0.0287223
0.0416907
0.123258
0.220713
0.338921
0.482149
0.651991
0.841336
1.01527
1.0975
-1.47643
-1.20664
-0.920508
-0.691393
-0.51731
-0.387549
-0.290066
-0.213342
-0.148129
-0.0872204
-0.0245825
0.0454527
0.128933
0.233066
0.367098
0.542673
0.771288
1.05931
1.40328
1.73014
-2.53965
-1.63055
-1.04444
-0.710964
-0.495756
-0.352099
-0.254536
-0.183588
-0.126174
-0.0736001
-0.0192739
0.0427821
0.119207
0.218778
0.354807
0.547979
0.826388
1.23658
1.91167
2.92419
-4.36667
-2.04464
-0.973548
-0.563186
-0.357852
-0.240152
-0.170125
-0.123788
-0.0874865
-0.0535153
-0.0166594
0.0276558
0.0846027
0.161725
0.272406
0.442094
0.718214
1.2257
2.41103
4.84853
)
;

boundaryField
{
    movingWall
    {
        type            zeroGradient;
    }
    fixedWalls
    {
        type            zeroGradient;
    }
    frontAndBack
    {
        type            empty;
    }
}


// ************************************************************************* //
