/*--------------------------------*- C++ -*----------------------------------*\
| RapidCFD by simFlow (sim-flow.com)                                          |
\*---------------------------------------------------------------------------*/
FoamFile
{
    version     2.0;
    format      ascii;
    class       volVectorField;
    location    "0.5";
    object      U;
}
// * * * * * * * * * * * * * * * * * * * * * * * * * * * * * * * * * * * * * //

dimensions      [0 1 -1 0 0 0 0];

internalField   nonuniform List<vector> 
400
(
(0.000253634 -0.000250224 0)
(0.00014155 0.00011156 0)
(-0.00117688 0.000564675 0)
(-0.00348121 0.000885036 0)
(-0.00637775 0.00104576 0)
(-0.00946991 0.00106179 0)
(-0.0124036 0.000957883 0)
(-0.0148857 0.000760466 0)
(-0.0166904 0.000494664 0)
(-0.0176592 0.000184569 0)
(-0.0177031 -0.000145276 0)
(-0.016806 -0.000468391 0)
(-0.0150309 -0.000755454 0)
(-0.0125258 -0.000974315 0)
(-0.00952687 -0.00109124 0)
(-0.00635528 -0.00107406 0)
(-0.00340079 -0.000898158 0)
(-0.00108646 -0.000556411 0)
(0.000196445 -9.03694e-05 0)
(0.000267876 0.000262397 0)
(-7.73421e-05 -0.000169041 0)
(-0.00161142 0.00164516 0)
(-0.00569307 0.00361763 0)
(-0.0117194 0.00503518 0)
(-0.0188934 0.00574361 0)
(-0.0264024 0.00576057 0)
(-0.0334713 0.00517199 0)
(-0.0394294 0.00409277 0)
(-0.0437469 0.0026478 0)
(-0.0460502 0.000966977 0)
(-0.0461325 -0.000813293 0)
(-0.0439643 -0.00254726 0)
(-0.0397038 -0.00407893 0)
(-0.0337049 -0.00524547 0)
(-0.0265151 -0.00588696 0)
(-0.0188557 -0.00586523 0)
(-0.0115674 -0.00509507 0)
(-0.00551361 -0.00358963 0)
(-0.00149317 -0.00155922 0)
(-4.2579e-05 0.000227471 0)
(-0.000528592 0.00109185 0)
(-0.00371153 0.00573684 0)
(-0.0105895 0.0102253 0)
(-0.019993 0.0134086 0)
(-0.0307669 0.0149473 0)
(-0.0418251 0.0148398 0)
(-0.0521235 0.0132566 0)
(-0.0607486 0.0104569 0)
(-0.0669743 0.00674242 0)
(-0.0702878 0.00243898 0)
(-0.0704057 -0.00210675 0)
(-0.0672891 -0.00652598 0)
(-0.0611566 -0.01043 0)
(-0.0524921 -0.013422 0)
(-0.0420399 -0.0151245 0)
(-0.0307759 -0.0152266 0)
(-0.0198303 -0.0135569 0)
(-0.0103642 -0.0101795 0)
(-0.00354874 -0.0055514 0)
(-0.000476872 -0.00094888 0)
(-0.000928265 0.00348014 0)
(-0.00569183 0.0122216 0)
(-0.0153028 0.0199231 0)
(-0.0279187 0.0251996 0)
(-0.0419883 0.0275989 0)
(-0.056183 0.0271393 0)
(-0.0692569 0.0241105 0)
(-0.0801313 0.0189551 0)
(-0.0879544 0.0121963 0)
(-0.0921253 0.00440526 0)
(-0.0923098 -0.00380836 0)
(-0.0884562 -0.0117975 0)
(-0.0808104 -0.0188835 0)
(-0.0699276 -0.024378 0)
(-0.0566729 -0.0276295 0)
(-0.0421975 -0.0281036 0)
(-0.0278583 -0.0254993 0)
(-0.0150946 -0.0198929 0)
(-0.00550537 -0.0119284 0)
(-0.000861649 -0.00322504 0)
(-0.001279 0.00687828 0)
(-0.00753649 0.0209551 0)
(-0.019806 0.0325125 0)
(-0.0355371 0.0401058 0)
(-0.0527468 0.043293 0)
(-0.0698631 0.0421954 0)
(-0.0854689 0.0372799 0)
(-0.098367 0.0292148 0)
(-0.107627 0.0187783 0)
(-0.112596 0.00681397 0)
(-0.112904 -0.00578096 0)
(-0.108481 -0.0180561 0)
(-0.0995683 -0.0290134 0)
(-0.0867444 -0.0376351 0)
(-0.0709399 -0.0429476 0)
(-0.0534334 -0.0441314 0)
(-0.0357866 -0.040681 0)
(-0.0197362 -0.0325942 0)
(-0.00737099 -0.0205917 0)
(-0.00120374 -0.00649848 0)
(-0.0016076 0.0112163 0)
(-0.00931851 0.0318764 0)
(-0.0242105 0.0479545 0)
(-0.0430048 0.0580751 0)
(-0.0632602 0.0619405 0)
(-0.0831572 0.0598844 0)
(-0.101129 0.0526311 0)
(-0.115898 0.0411279 0)
(-0.126494 0.0264383 0)
(-0.132244 0.00969315 0)
(-0.132756 -0.00791704 0)
(-0.127929 -0.0251337 0)
(-0.117972 -0.0406273 0)
(-0.103438 -0.0530222 0)
(-0.0852727 -0.0609693 0)
(-0.0648383 -0.0632831 0)
(-0.0438873 -0.0591447 0)
(-0.0244787 -0.0483465 0)
(-0.00925468 -0.0315589 0)
(-0.00153781 -0.010729 0)
(-0.00194012 0.0164779 0)
(-0.0111216 0.0449763 0)
(-0.0286514 0.0662363 0)
(-0.0504815 0.0790629 0)
(-0.0736874 0.08345 0)
(-0.096207 0.0800776 0)
(-0.116356 0.0700273 0)
(-0.132819 0.0545871 0)
(-0.144636 0.035133 0)
(-0.151146 0.0130849 0)
(-0.151954 -0.0100873 0)
(-0.14692 -0.0328344 0)
(-0.136185 -0.0535022 0)
(-0.120227 -0.07034 0)
(-0.0999354 -0.0815687 0)
(-0.0767035 -0.085536 0)
(-0.0524415 -0.0809667 0)
(-0.0295456 -0.0672794 0)
(-0.0112839 -0.0449411 0)
(-0.00190012 -0.0159521 0)
(-0.00230008 0.0226958 0)
(-0.0130253 0.0603029 0)
(-0.0332514 0.0873666 0)
(-0.0580807 0.103 0)
(-0.0840761 0.107669 0)
(-0.108955 0.102565 0)
(-0.13097 0.0892471 0)
(-0.148837 0.0694131 0)
(-0.161669 0.0447729 0)
(-0.168871 0.0170201 0)
(-0.170066 -0.0121344 0)
(-0.165074 -0.0408951 0)
(-0.153932 -0.067317 0)
(-0.136972 -0.0892764 0)
(-0.114944 -0.104515 0)
(-0.0891771 -0.1108 0)
(-0.0616715 -0.106216 0)
(-0.0351488 -0.0895819 0)
(-0.013586 -0.0609511 0)
(-0.00232636 -0.0222782 0)
(-0.00271165 0.0299478 0)
(-0.0151081 0.0779585 0)
(-0.0381149 0.111359 0)
(-0.0658487 0.129753 0)
(-0.0943273 0.134321 0)
(-0.1211 0.126977 0)
(-0.144444 0.109905 0)
(-0.163214 0.0852838 0)
(-0.176688 0.0551683 0)
(-0.184408 0.0214871 0)
(-0.186059 -0.0138755 0)
(-0.181423 -0.0489584 0)
(-0.170396 -0.0815959 0)
(-0.153082 -0.109327 0)
(-0.129972 -0.129384 0)
(-0.102186 -0.138832 0)
(-0.0716898 -0.13489 0)
(-0.0414671 -0.115472 0)
(-0.0162881 -0.0798969 0)
(-0.00285471 -0.0298902 0)
(-0.00320765 0.0383602 0)
(-0.0174662 0.098091 0)
(-0.043341 0.138191 0)
(-0.0737565 0.159048 0)
(-0.10416 0.162904 0)
(-0.132032 0.152676 0)
(-0.155826 0.131344 0)
(-0.174679 0.101642 0)
(-0.188168 0.0659588 0)
(-0.196068 0.0263898 0)
(-0.198186 -0.0151134 0)
(-0.194284 -0.056547 0)
(-0.184082 -0.0956443 0)
(-0.167367 -0.129692 0)
(-0.144215 -0.155427 0)
(-0.115339 -0.1691 0)
(-0.0824459 -0.166805 0)
(-0.0486361 -0.145126 0)
(-0.0195287 -0.102161 0)
(-0.00353357 -0.0390478 0)
(-0.00384394 0.0481292 0)
(-0.0202461 0.120895 0)
(-0.0490464 0.167754 0)
(-0.0816861 0.190369 0)
(-0.113053 0.19256 0)
(-0.140746 0.178618 0)
(-0.163621 0.152515 0)
(-0.181309 0.117595 0)
(-0.193846 0.0765361 0)
(-0.20136 0.0314946 0)
(-0.203856 -0.0156594 0)
(-0.201109 -0.0630519 0)
(-0.192648 -0.108493 0)
(-0.177857 -0.149173 0)
(-0.156224 -0.181418 0)
(-0.127779 -0.200609 0)
(-0.0936441 -0.201427 0)
(-0.056733 -0.178576 0)
(-0.0234798 -0.128174 0)
(-0.00443553 -0.0501049 0)
(-0.00472534 0.0595716 0)
(-0.0236945 0.146618 0)
(-0.0553826 0.199758 0)
(-0.0893759 0.222793 0)
(-0.120121 0.221894 0)
(-0.145675 0.203191 0)
(-0.16563 0.171842 0)
(-0.18037 0.131812 0)
(-0.19058 0.0859711 0)
(-0.196862 0.0363768 0)
(-0.199501 -0.0153711 0)
(-0.198335 -0.0677443 0)
(-0.192717 -0.118869 0)
(-0.181573 -0.166081 0)
(-0.163645 -0.205491 0)
(-0.137966 -0.231664 0)
(-0.104596 -0.237627 0)
(-0.0657334 -0.215527 0)
(-0.0283776 -0.158369 0)
(-0.00568207 -0.0635526 0)
(-0.00605154 0.0732286 0)
(-0.0282256 0.175564 0)
(-0.0625082 0.233572 0)
(-0.0962562 0.254749 0)
(-0.123856 0.248734 0)
(-0.144396 0.224029 0)
(-0.158669 0.187109 0)
(-0.168105 0.142464 0)
(-0.174199 0.09297 0)
(-0.178117 0.0403795 0)
(-0.180483 -0.0141988 0)
(-0.181264 -0.0698223 0)
(-0.179694 -0.125212 0)
(-0.174269 -0.178182 0)
(-0.162894 -0.224975 0)
(-0.143316 -0.25959 0)
(-0.113937 -0.273331 0)
(-0.0753928 -0.255068 0)
(-0.0345562 -0.193091 0)
(-0.00748627 -0.0801046 0)
(-0.00819202 0.0900465 0)
(-0.0344825 0.208021 0)
(-0.0704116 0.267885 0)
(-0.101022 0.283608 0)
(-0.121573 0.269813 0)
(-0.133106 0.237843 0)
(-0.13816 0.195406 0)
(-0.13946 0.147235 0)
(-0.139364 0.0959102 0)
(-0.139592 0.04262 0)
(-0.141106 -0.0122332 0)
(-0.144052 -0.068508 0)
(-0.147666 -0.125795 0)
(-0.150167 -0.182771 0)
(-0.148719 -0.236326 0)
(-0.139642 -0.280449 0)
(-0.119094 -0.305027 0)
(-0.0849355 -0.29516 0)
(-0.0424403 -0.232378 0)
(-0.010216 -0.100837 0)
(-0.0117674 0.111636 0)
(-0.0432594 0.243962 0)
(-0.0782965 0.300035 0)
(-0.100626 0.305094 0)
(-0.108349 0.280462 0)
(-0.105728 0.240384 0)
(-0.0975258 0.193283 0)
(-0.0877668 0.14355 0)
(-0.0794965 0.0930367 0)
(-0.0747807 0.0420953 0)
(-0.0747984 -0.00972901 0)
(-0.0798864 -0.0632119 0)
(-0.089459 -0.118991 0)
(-0.101785 -0.176959 0)
(-0.113684 -0.235286 0)
(-0.120303 -0.288883 0)
(-0.115262 -0.327197 0)
(-0.0922658 -0.331795 0)
(-0.0523154 -0.275404 0)
(-0.0144303 -0.127347 0)
(-0.0175493 0.140659 0)
(-0.0547642 0.282146 0)
(-0.0827854 0.324719 0)
(-0.0880789 0.312475 0)
(-0.0751063 0.274457 0)
(-0.052588 0.226772 0)
(-0.0274547 0.17729 0)
(-0.00451024 0.129136 0)
(0.0131035 0.0829134 0)
(0.0234449 0.0379471 0)
(0.0254035 -0.00707367 0)
(0.0185122 -0.0537591 0)
(0.00298413 -0.103753 0)
(-0.0199932 -0.158321 0)
(-0.0476828 -0.217503 0)
(-0.0749825 -0.278362 0)
(-0.0935452 -0.331792 0)
(-0.0920629 -0.357683 0)
(-0.0632802 -0.319295 0)
(-0.0206336 -0.161974 0)
(-0.0254497 0.181711 0)
(-0.0657743 0.317771 0)
(-0.0733324 0.331363 0)
(-0.0480757 0.295401 0)
(-0.00557627 0.244213 0)
(0.0412212 0.192381 0)
(0.0846565 0.145048 0)
(0.12054 0.102972 0)
(0.146706 0.0651383 0)
(0.162052 0.0298916 0)
(0.165946 -0.00467171 0)
(0.15794 -0.0406289 0)
(0.137736 -0.0802472 0)
(0.105444 -0.125919 0)
(0.0622649 -0.179727 0)
(0.0118078 -0.242021 0)
(-0.0378286 -0.307878 0)
(-0.0716787 -0.360144 0)
(-0.0700553 -0.356609 0)
(-0.0279122 -0.208375 0)
(-0.029649 0.239176 0)
(-0.0608412 0.335768 0)
(-0.021942 0.300503 0)
(0.0505427 0.240128 0)
(0.127574 0.182949 0)
(0.19701 0.13539 0)
(0.254339 0.0973996 0)
(0.298253 0.0668515 0)
(0.328828 0.0413556 0)
(0.34647 0.0187787 0)
(0.351379 -0.00279426 0)
(0.343306 -0.0252654 0)
(0.321472 -0.0507881 0)
(0.284645 -0.0820486 0)
(0.231574 -0.122446 0)
(0.162182 -0.17567 0)
(0.0799015 -0.243432 0)
(-0.00318937 -0.319136 0)
(-0.0546694 -0.368612 0)
(-0.0284594 -0.267618 0)
(0.00808309 0.281861 0)
(0.0197831 0.294972 0)
(0.139066 0.210973 0)
(0.26446 0.143477 0)
(0.364368 0.0971862 0)
(0.440365 0.0657777 0)
(0.496744 0.0442377 0)
(0.536875 0.0288862 0)
(0.563448 0.017199 0)
(0.578307 0.00748481 0)
(0.582382 -0.00149417 0)
(0.575697 -0.0108453 0)
(0.55731 -0.0218472 0)
(0.525136 -0.0363351 0)
(0.475778 -0.0572597 0)
(0.404538 -0.0893842 0)
(0.305177 -0.139741 0)
(0.173417 -0.216386 0)
(0.0411721 -0.311655 0)
(0.0184302 -0.299995 0)
(0.299604 0.146091 0)
(0.396272 0.127503 0)
(0.55742 0.0760895 0)
(0.674487 0.0437233 0)
(0.743889 0.0255721 0)
(0.787154 0.0152422 0)
(0.815486 0.00921237 0)
(0.833956 0.00550943 0)
(0.845386 0.00302719 0)
(0.851372 0.00114934 0)
(0.852667 -0.000499399 0)
(0.849383 -0.00221509 0)
(0.841 -0.00433859 0)
(0.826141 -0.0074241 0)
(0.802078 -0.0125323 0)
(0.763621 -0.0217729 0)
(0.699108 -0.0392829 0)
(0.583952 -0.0726601 0)
(0.415827 -0.127868 0)
(0.308819 -0.149468 0)
)
;

boundaryField
{
    movingWall
    {
        type            fixedValue;
        value           uniform (1 0 0);
    }
    fixedWalls
    {
        type            fixedValue;
        value           uniform (0 0 0);
    }
    frontAndBack
    {
        type            empty;
    }
}


// ************************************************************************* //
